
                                 *****************
                                 * O   R   C   A *
                                 *****************

                                            #,                                       
                                            ###                                      
                                            ####                                     
                                            #####                                    
                                            ######                                   
                                           ########,                                 
                                     ,,################,,,,,                         
                               ,,#################################,,                 
                          ,,##########################################,,             
                       ,#########################################, ''#####,          
                    ,#############################################,,   '####,        
                  ,##################################################,,,,####,       
                ,###########''''           ''''###############################       
              ,#####''   ,,,,##########,,,,          '''####'''          '####       
            ,##' ,,,,###########################,,,                        '##       
           ' ,,###''''                  '''############,,,                           
         ,,##''                                '''############,,,,        ,,,,,,###''
      ,#''                                            '''#######################'''  
     '                                                          ''''####''''         
             ,#######,   #######,   ,#######,      ##                                
            ,#'     '#,  ##    ##  ,#'     '#,    #''#        ,####,    ,#,          
            ##       ##  ##   ,#'  ##            #'  '#       #'       ,# #          
            ##       ##  #######   ##           ,######,      #####,      #          
            '#,     ,#'  ##    ##  '#,     ,#' ,#      #,     #,   #      #          
             '#######'   ##     ##  '#######'  #'      '#     '####' #    #          



                #########################################################
                #                        -***-                          #
                #          Department of theory and spectroscopy        #
                #                                                       #
                #                      Frank Neese                      #
                #                                                       #
                #     Directorship, Architecture, Infrastructure        #
                #                    SHARK, DRIVERS                     #
                #        Core code/Algorithms in most modules           #
                #                                                       #
                #        Max Planck Institute fuer Kohlenforschung      #
                #                Kaiser Wilhelm Platz 1                 #
                #                 D-45470 Muelheim/Ruhr                 #
                #                      Germany                          #
                #                                                       #
                #                  All rights reserved                  #
                #                        -***-                          #
                #########################################################


                         Program Version 6.1.1  -  RELEASE   -


 With contributions from (in alphabetic order):
[Max-Planck-Institut fuer Kohlenforschung]                               
  Daniel Aravena         : Magnetic Suceptibility                        
  Michael Atanasov       : Ab Initio Ligand Field Theory (pilot matlab implementation)
  Alexander A. Auer      : GIAO ZORA, VPT2 properties, NMR spectrum      
  Ute Becker             : All parallelization in ORCA, NUMFREQ, NUMCALC 
  Giovanni Bistoni       : ED, misc. LED, open-shell LED, HFLD           
  Dmytro Bykov           : pre 5.0 version of the SCF Hessian            
  Marcos Casanova-Páez   : Triplet and SCS-CIS(D). UHF-(DLPNO)-IP/EA/STEOM-CCSD. UHF-CVS-IP/STEOM-CCSD   
  Vijay G. Chilkuri      : MRCI spin determinant printing, contributions to CSF-ICE 
  Pauline Colinet        : FMM embedding                                 
  Dipayan Datta          : RHF DLPNO-CCSD density                        
  Achintya Kumar Dutta   : EOM-CC, STEOM-CC                              
  Nicolas Foglia         : Exact transition moments, OPA infrastructure, MCD improvements    
  Dmitry Ganyushin       : Spin-Orbit,Spin-Spin,Magnetic field MRCI      
  Miquel Garcia-Rates    : C-PCM and meta-GGA Hessian, CCSD/C-PCM, Gaussian charge scheme 
  Tiago L. C. Gouveia    : GS-ROHF, GS-ROCIS                             
  Yang Guo               : DLPNO-NEVPT2, F12-NEVPT2, CIM, IAO-localization        
  Andreas Hansen         : Spin unrestricted coupled pair/coupled cluster methods 
  Ingolf Harden          : AUTO-CI MPn and infrastructure                
  Benjamin Helmich-Paris : MC-RPA, TRAH-(SCF,CASSCF), AVAS, COSX integrals, SCF dyn. polar., MC-PDFT, srDFT 
  Lee Huntington         : MR-EOM, pCC                                   
  Robert Izsak           : Overlap fitted RIJCOSX, COSX-SCS-MP3, EOM     
  Riya Kayal             : Wick's Theorem for AUTO-CI, AUTO-CI UHF-CCSDT 
  Emily Kempfer          : AUTO-CI RHF CISDT and CCSDT, approximate NEVPT4
  Christian Kollmar      : KDIIS, OOCD, Brueckner-CCSD(T), CCSD density, CASPT2, CASPT2-K, improved NEVPT2 
  Axel Koslowski         : Symmetry handling                             
  Simone Kossmann        : meta-GGA functionals, TD-DFT gradient, OOMP2, (MP2 Hessian; deprecated post 5.0) 
  Lucas Lang             : DCDCAS, Hyperfine gauge corrections, ICE-SOC+SSC
  Marvin Lechner         : AUTO-CI (C++ implementation), FIC-MRCC        
  Spencer Leger          : CASSCF response                               
  Dagmar Lenk            : GEPOL surface, SMD, ORCA-2-JSON               
  Dimitrios Liakos       : Extrapolation schemes; Compound Job, Property file
  Dimitrios Manganas     : Further ROCIS development; embedding schemes. LFT, Crystal Embedding 
  Dimitrios Pantazis     : SARC Basis sets                               
  Anastasios Papadopoulos: AUTO-CI, single reference methods and gradients 
  Taras Petrenko         : pre 6.0 DFT Hessian and TD-DFT gradient,  ECA, NRVS 
  Petra Pikulova         : Analytic Raman intensities                    
  Peter Pinski           : DLPNO-MP2, DLPNO-MP2 Gradient                 
  Shashank Vittal Rao    : ES-AILFT, MagRelax                            
  Christoph Reimann      : Effective Core Potentials                     
  Marius Retegan         : Local ZFS, SOC                                
  Christoph Riplinger    : Optimizer, TS searches, QM/MM, DLPNO-CCSD(T), (RO)-DLPNO pert. Triples 
  Michael Roemelt        : Original ROCIS implementation, recursive CI coupling coefficients
  Masaaki Saitow         : Open-shell DLPNO-CCSD energy and density      
  Barbara Sandhoefer     : DKH picture change effects                    
  Yorick L. A. Schmerwitz: GMF and freeze-and-release deltaSCF, NEB S-IDPP initial path                    
  Kantharuban Sivalingam : CASSCF convergence/infrastructure, NEVPT2, NEVPT3, NEVPT4(SD), FIC-MRCI and CEPA variants
  Bernardo de Souza      : ESD, SOC TD-DFT                               
  Georgi L. Stoychev     : AutoAux, RI-MP2 NMR, DLPNO-MP2 response, X2C  
  Van Anh Tran           : RI-MP2 g-tensors                              
  Willem Van den Heuvel  : Paramagnetic NMR                              
  Zikuan Wang            : NOTCH, Electric field optimization            
  Frank Wennmohs         : Technical directorship and infrastructure     
  Hang Xu                : AUTO-CI-Response properties                   
                                                                         
[FACCTs GmbH]                                                            
  Markus Bursch, Nicolas Foglia, Miquel Garcia-Rates, Ingolf Harden, Hagen Neugebauer, Anastasios Papadopoulos, 
  Christoph Riplinger, Bernardo de Souza, Georgi L. Stoychev                                                    
                                                                 
  APM, various basis sets, CI-OPT, improved COSX, DLPNO-Multilevel,           
  DOCKER, DRACO, updates on ESD, Fragmentator, GOAT, IRC, LR-CPCM, L-BFGS, MBIS, meta-GGA TD-DFT gradient, ML-optimized integration grids, 
  MM, NACMEs, nearIR, NEB, NEB-TS, NL-DFT gradient (VV10), 2- and 3-layer-ONIOM, interface openCOSMO-RS, QMMM,   
  Crystal-QMMM, RESP, rigid body optimization, SF, symmetry and pop. for TD-DFT, various functionals, SOLVATOR                                   
                                                                         
[Other institutions]                                                     
  V. Asgeirsson          : NEB                                           
  Christoph Bannwarth    : sTDA-DFT, sTD-DFT, PBEh-3c, B97-3c, D3        
  Giovanni Bistoni       : ETS/NOCV, ADLD/ADEX, COVALED                  
  Martin Brehm           : Molecular dynamics                            
  Ronald Cardenas        : ETS/NOCV                                      
  Martina Colucci        : COVALED                                       
  Sebastian Ehlert       : rSCAN, r2SCAN, r2SCAN-3c, D4, dhf basis sets  
  Marvin Friede          : D4 for Fr, Ra, Ac-Lr                          
  Lars Goerigk           : TD-DFT with DH, B97 family of functionals     
  Stefan Grimme          : VdW corrections, initial TS optimization, DFT functionals, gCP, sTDA/sTD-DF 
  Waldemar Hujo          : DFT-NL                                        
  H. Jonsson             : NEB                                           
  Holger Kruse           : gCP                                           
  Marcel Mueller         : wB97X-3c, vDZP basis set                      
  Hagen Neugebauer       : wr2SCAN, Native XTB                           
  Gianluca Regni         : ADLD/ADEX                                     
  Tobias Risthaus        : pre 6.0 range-separated hybrid DFT and stability analysis
  Lukas Wittmann         : regularized MP2, r2SCAN double-hybrids, wr2SCAN        
                                                                         
We gratefully acknowledge several colleagues who have allowed us to      
interface, adapt or use parts of their codes:                            
  Ed Valeev, F. Pavosevic, A. Kumar             : LibInt (2-el integral package), F12 methods 
  Garnet Chan, S. Sharma, J. Yang, R. Olivares  : DMRG                   
  Ulf Ekstrom                                   : XCFun DFT Library      
  Mihaly Kallay                                 : mrcc  (arbitrary order and MRCC methods)
  Frank Weinhold                                : gennbo (NPA and NBO analysis)           
  Simon Mueller                                 : openCOSMO-RS                            
  Christopher J. Cramer and Donald G. Truhlar   : smd solvation model                     
  S Lehtola, MJT Oliveira, MAL Marques          : LibXC Library                           
  Liviu Ungur et al                             : ANISO software                          


 Your calculation uses the libint2 library for the computation of 2-el integrals
 For citations please refer to: http://libint.valeyev.net

 Your ORCA version has been built with support for libXC version: 7.0.0
 For citations please refer to: https://libxc.gitlab.io

 This ORCA versions uses:
   CBLAS   interface :  Fast vector & matrix operations
   LAPACKE interface :  Fast linear algebra routines
   Shared memory     :  Shared parallel matrices


  ***********************************
  * Starting time: Wed Jul 22 11:56:00 2026
  * Host name:     DESKTOP-19Q153E
  * Process ID:    22996
  * Working dir.:  C:\Users\ysm04\Documents\etc\uv_vis\calculations\03_baseline\hf_def2svp_cis
  ***********************************

NOTE: MaxCore=2500 MB was set to SCF,MP2,MDCI,CIPSI,MRCI,RASCI and CIS
      => If you want to overwrite this, your respective input block should be placed after the MaxCore statement
================================================================================

----- Orbital basis set information -----
Your calculation utilizes the basis: def2-SVP
   F. Weigend and R. Ahlrichs, Phys. Chem. Chem. Phys. 7, 3297 (2005).

================================================================================
                                        WARNINGS
                       Please study these warnings very carefully!
================================================================================


WARNING: CIS/ROCIS methods need fully converged wavefunctions
  ===> : Setting SCFConvForced true
         You can overwrite this default with %scf ConvForced false 


================================================================================
                                       INPUT FILE
================================================================================
NAME = cis.inp
|  1> # low-cost baseline: hf_def2svp_cis
|  2> ! HF def2-SVP TightSCF
|  3> %pal nprocs 4 end
|  4> %maxcore 2500
|  5> %scf
|  6>   MaxIter 300
|  7> end
|  8> %tddft
|  9>   nroots 12
| 10>   tda    true
| 11>   maxdim 5
| 12> end
| 13> * xyz 0 1
| 14> C     -6.2773182737    -0.3604747582    -0.3671110791
| 15> C     -5.1842447465    -0.3919115618     0.7054595928
| 16> C     -5.5840380333     0.5758264074     1.8299401605
| 17> C     -5.0960922498    -1.8233797609     1.2566386753
| 18> C     -3.8234133617     0.0184140396     0.1675635676
| 19> C     -3.6176499370     0.4269760327    -1.1461210254
| 20> C     -2.3630075456     0.7921506674    -1.5951419215
| 21> C     -1.2567656860     0.7503611139    -0.7480101184
| 22> C     -1.4575056120     0.3551166005     0.5750677894
| 23> C     -2.7151104841     0.0019312817     1.0154255532
| 24> C      0.0619824791     1.1232403606    -1.2671039233
| 25> O      0.0472279260     1.8971776430    -2.3459344496
| 26> C      1.2340650694     0.6858812379    -0.7080492827
| 27> C      2.5075943350     1.0287049769    -1.2714691765
| 28> O      2.6103106720     1.7329417763    -2.2990944826
| 29> C      3.7263464513     0.4913799760    -0.6302380230
| 30> C      3.8068522591     0.1897684803     0.7311642478
| 31> C      4.9752674679    -0.2976603777     1.2695857540
| 32> C      6.0992757841    -0.5128381045     0.4645468071
| 33> O      7.1903888829    -1.0113502748     1.0957300764
| 34> C      8.3730490820    -1.2340782842     0.3529125057
| 35> C      6.0296455084    -0.2056163683    -0.8926836837
| 36> C      4.8584325169     0.3001348655    -1.4198620512
| 37> H     -7.2217630299    -0.6755788621     0.0714160677
| 38> H     -6.4105446743     0.6436623251    -0.7626319518
| 39> H     -6.0428715613    -1.0394493342    -1.1836743408
| 40> H     -4.8686824066     0.5507861766     2.6471584179
| 41> H     -6.5619495274     0.3063819852     2.2224723045
| 42> H     -5.6328181844     1.5943207691     1.4498518688
| 43> H     -4.3812094981    -1.8938348388     2.0713337975
| 44> H     -6.0682992422    -2.1382424675     1.6289441410
| 45> H     -4.7875004238    -2.5104597920     0.4712450213
| 46> H     -4.4378929797     0.4672207744    -1.8434023051
| 47> H     -2.2247634869     1.1042238817    -2.6194109650
| 48> H     -0.6316999899     0.3465997939     1.2690116240
| 49> H     -2.8317186624    -0.2911357537     2.0473666584
| 50> H      0.9985088126     2.0471100871    -2.6177956389
| 51> H      1.2057890929     0.0194964648     0.1332106066
| 52> H      2.9639000518     0.3672264474     1.3801796529
| 53> H      5.0519843722    -0.5231310593     2.3216873707
| 54> H      9.0967685683    -1.6137939225     1.0715872403
| 55> H      8.2143143624    -1.9771267374    -0.4336201767
| 56> H      8.7466198925    -0.3052363597    -0.0867791255
| 57> H      6.8780123915    -0.3522331868    -1.5415813820
| 58> H      4.8005236081     0.5487922396    -2.4697843886
| 59> *
| 60> 
| 61>                          ****END OF INPUT****
================================================================================

                       ****************************
                       * Single Point Calculation *
                       ****************************

---------------------------------
CARTESIAN COORDINATES (ANGSTROEM)
---------------------------------
  C     -6.277318   -0.360475   -0.367111
  C     -5.184245   -0.391912    0.705460
  C     -5.584038    0.575826    1.829940
  C     -5.096092   -1.823380    1.256639
  C     -3.823413    0.018414    0.167564
  C     -3.617650    0.426976   -1.146121
  C     -2.363008    0.792151   -1.595142
  C     -1.256766    0.750361   -0.748010
  C     -1.457506    0.355117    0.575068
  C     -2.715110    0.001931    1.015426
  C      0.061982    1.123240   -1.267104
  O      0.047228    1.897178   -2.345934
  C      1.234065    0.685881   -0.708049
  C      2.507594    1.028705   -1.271469
  O      2.610311    1.732942   -2.299094
  C      3.726346    0.491380   -0.630238
  C      3.806852    0.189768    0.731164
  C      4.975267   -0.297660    1.269586
  C      6.099276   -0.512838    0.464547
  O      7.190389   -1.011350    1.095730
  C      8.373049   -1.234078    0.352913
  C      6.029646   -0.205616   -0.892684
  C      4.858433    0.300135   -1.419862
  H     -7.221763   -0.675579    0.071416
  H     -6.410545    0.643662   -0.762632
  H     -6.042872   -1.039449   -1.183674
  H     -4.868682    0.550786    2.647158
  H     -6.561950    0.306382    2.222472
  H     -5.632818    1.594321    1.449852
  H     -4.381209   -1.893835    2.071334
  H     -6.068299   -2.138242    1.628944
  H     -4.787500   -2.510460    0.471245
  H     -4.437893    0.467221   -1.843402
  H     -2.224763    1.104224   -2.619411
  H     -0.631700    0.346600    1.269012
  H     -2.831719   -0.291136    2.047367
  H      0.998509    2.047110   -2.617796
  H      1.205789    0.019496    0.133211
  H      2.963900    0.367226    1.380180
  H      5.051984   -0.523131    2.321687
  H      9.096769   -1.613794    1.071587
  H      8.214314   -1.977127   -0.433620
  H      8.746620   -0.305236   -0.086779
  H      6.878012   -0.352233   -1.541581
  H      4.800524    0.548792   -2.469784

----------------------------
CARTESIAN COORDINATES (A.U.)
----------------------------
  NO LB      ZA    FRAG     MASS         X           Y           Z
   0 C     6.0000    0    12.011  -11.862412   -0.681199   -0.693739
   1 C     6.0000    0    12.011   -9.796803   -0.740606    1.333125
   2 C     6.0000    0    12.011  -10.552303    1.088154    3.458086
   3 C     6.0000    0    12.011   -9.630219   -3.445688    2.374703
   4 C     6.0000    0    12.011   -7.225204    0.034797    0.316649
   5 C     6.0000    0    12.011   -6.836368    0.806868   -2.165855
   6 C     6.0000    0    12.011   -4.465437    1.496948   -3.014381
   7 C     6.0000    0    12.011   -2.374943    1.417977   -1.413534
   8 C     6.0000    0    12.011   -2.754286    0.671073    1.086721
   9 C     6.0000    0    12.011   -5.130815    0.003650    1.918876
  10 C     6.0000    0    12.011    0.117130    2.122617   -2.394479
  11 O     8.0000    0    15.999    0.089248    3.585146   -4.433174
  12 C     6.0000    0    12.011    2.332045    1.296128   -1.338019
  13 C     6.0000    0    12.011    4.738667    1.943971   -2.402729
  14 O     8.0000    0    15.999    4.932772    3.274785   -4.344659
  15 C     6.0000    0    12.011    7.041774    0.928574   -1.190977
  16 C     6.0000    0    12.011    7.193908    0.358610    1.381700
  17 C     6.0000    0    12.011    9.401893   -0.562497    2.399169
  18 C     6.0000    0    12.011   11.525961   -0.969124    0.877866
  19 O     8.0000    0    15.999   13.587866   -1.911175    2.070630
  20 C     6.0000    0    12.011   15.822770   -2.332070    0.666908
  21 C     6.0000    0    12.011   11.394379   -0.388559   -1.686928
  22 C     6.0000    0    12.011    9.181107    0.567173   -2.683150
  23 H     1.0000    0     1.008  -13.647154   -1.276659    0.134957
  24 H     1.0000    0     1.008  -12.114174    1.216346   -1.441166
  25 H     1.0000    0     1.008  -11.419372   -1.964275   -2.236820
  26 H     1.0000    0     1.008   -9.200476    1.040835    5.002404
  27 H     1.0000    0     1.008  -12.400288    0.578978    4.199864
  28 H     1.0000    0     1.008  -10.644484    3.012830    2.739823
  29 H     1.0000    0     1.008   -8.279286   -3.578829    3.914254
  30 H     1.0000    0     1.008  -11.467424   -4.040693    3.078258
  31 H     1.0000    0     1.008   -9.047065   -4.744081    0.890524
  32 H     1.0000    0     1.008   -8.386402    0.882919   -3.483526
  33 H     1.0000    0     1.008   -4.204194    2.086681   -4.949969
  34 H     1.0000    0     1.008   -1.193740    0.654979    2.398084
  35 H     1.0000    0     1.008   -5.351173   -0.550167    3.868962
  36 H     1.0000    0     1.008    1.886908    3.868477   -4.946917
  37 H     1.0000    0     1.008    2.278611    0.036843    0.251732
  38 H     1.0000    0     1.008    5.600959    0.693957    2.608162
  39 H     1.0000    0     1.008    9.546867   -0.988574    4.387353
  40 H     1.0000    0     1.008   17.190401   -3.049629    2.025006
  41 H     1.0000    0     1.008   15.522805   -3.736228   -0.819423
  42 H     1.0000    0     1.008   16.528716   -0.576813   -0.163989
  43 H     1.0000    0     1.008   12.997560   -0.665624   -2.913167
  44 H     1.0000    0     1.008    9.071675    1.037067   -4.667216

--------------------------------
INTERNAL COORDINATES (ANGSTROEM)
--------------------------------
 C      0   0   0     0.000000000000     0.00000000     0.00000000
 C      1   0   0     1.531732958027     0.00000000     0.00000000
 C      2   1   0     1.536492107476   108.29176835     0.00000000
 C      2   1   3     1.536447346542   108.13540487   118.95906340
 C      2   1   3     1.519724083821   112.68243015   239.62288745
 C      5   2   1     1.391053089941   123.09384431     2.38280669
 C      6   5   2     1.381701780147   121.25470650   179.99743604
 C      7   6   5     1.393969049347   121.01071503     0.64734873
 C      8   7   6     1.395367296941   118.07018123   358.70946882
 C      9   8   7     1.378486432245   120.44560922     0.82086973
 C      8   7   6     1.465467172563   119.42270253   178.95051405
 O     11   8   7     1.327807184196   115.22069469    22.23812358
 C     11   8   7     1.370256432888   122.95669426   203.72556705
 C     13  11   8     1.434171148466   121.53272914   177.60075055
 O     14  13  11     1.250005554089   122.04629198   359.57343179
 C     14  13  11     1.478259878978   118.34674206   181.46834300
 C     16  14  13     1.396734342088   123.28559876   331.07522664
 C     17  16  14     1.375746600979   120.45934644   180.55372928
 C     18  17  16     1.399208295796   120.76819290   359.37508638
 O     19  18  17     1.355520010090   115.80263819   180.82098717
 C     20  19  18     1.414238613547   119.10943204   181.08010302
 C     19  18  17     1.393308356268   119.10425100     1.05732515
 C     22  19  18     1.380377199576   119.68357256   359.83248813
 H      1   2   3     1.087921206838   109.34807960   299.59583907
 H      1   2   3     1.087417728666   111.16617692    58.65297149
 H      1   2   3     1.087541859501   111.04538483   180.51945684
 H      3   2   1     1.086373032636   111.38767412   176.75627859
 H      3   2   1     1.087654665333   110.00112582    56.59783264
 H      3   2   1     1.088199144203   110.21438371   296.98009706
 H      4   2   1     1.086162699054   111.54749545   183.84468035
 H      4   2   1     1.087628760133   109.95169725   303.91824425
 H      4   2   1     1.088187059266   110.21917875    63.51900977
 H      6   5   2     1.077320505399   120.63641037     0.00000000
 H      7   6   5     1.079642618797   120.06451615   179.86912914
 H      9   8   7     1.078696207032   120.13842677   182.30823449
 H     10   9   8     1.079068208727   118.27288509   180.44498305
 H     12  11   8     1.000661565791   107.30799518   182.21531758
 H     13  11   8     1.073585766491   119.68900273     1.61839493
 H     17  16  14     1.078554935984   120.39418756   358.49503863
 H     18  17  16     1.078721615399   121.07530405   179.28660155
 H     21  20  19     1.088323129853   105.31943217   179.10089323
 H     21  20  19     1.093595617901   111.30845133   297.72140148
 H     21  20  19     1.093449222284   111.29235959    60.46499951
 H     22  19  18     1.078096045196   121.13086140   179.58660348
 H     23  22  19     1.080518785577   120.05843696   179.45157355

---------------------------
INTERNAL COORDINATES (A.U.)
---------------------------
 C      0   0   0     0.000000000000     0.00000000     0.00000000
 C      1   0   0     2.894555800972     0.00000000     0.00000000
 C      2   1   0     2.903549290061   108.29176835     0.00000000
 C      2   1   3     2.903464704154   108.13540487   118.95906340
 C      2   1   3     2.871862317547   112.68243015   239.62288745
 C      5   2   1     2.628709377734   123.09384431     2.38280669
 C      6   5   2     2.611037963229   121.25470650   179.99743604
 C      7   6   5     2.634219742428   121.01071503     0.64734873
 C      8   7   6     2.636862047448   118.07018123   358.70946882
 C      9   8   7     2.604961836270   120.44560922     0.82086973
 C      8   7   6     2.769331614396   119.42270253   178.95051405
 O     11   8   7     2.509191936784   115.22069469    22.23812358
 C     11   8   7     2.589409391401   122.95669426   203.72556705
 C     13  11   8     2.710190699771   121.53272914   177.60075055
 O     14  13  11     2.362168163108   122.04629198   359.57343179
 C     14  13  11     2.793506326033   118.34674206   181.46834300
 C     16  14  13     2.639445388389   123.28559876   331.07522664
 C     17  16  14     2.599784305523   120.45934644   180.55372928
 C     18  17  16     2.644120483365   120.76819290   359.37508638
 O     19  18  17     2.561561588120   115.80263819   180.82098717
 C     20  19  18     2.672523667620   119.10943204   181.08010302
 C     19  18  17     2.632971213450   119.10425100     1.05732515
 C     22  19  18     2.608534868707   119.68357256   359.83248813
 H      1   2   3     2.055873136210   109.34807960   299.59583907
 H      1   2   3     2.054921700349   111.16617692    58.65297149
 H      1   2   3     2.055156273633   111.04538483   180.51945684
 H      3   2   1     2.052947510959   111.38767412   176.75627859
 H      3   2   1     2.055369445761   110.00112582    56.59783264
 H      3   2   1     2.056398361711   110.21438371   296.98009706
 H      4   2   1     2.052550038093   111.54749545   183.84468035
 H      4   2   1     2.055320492028   109.95169725   303.91824425
 H      4   2   1     2.056375524490   110.21917875    63.51900977
 H      6   5   2     2.035840713661   120.63641037     0.00000000
 H      7   6   5     2.040228872035   120.06451615   179.86912914
 H      9   8   7     2.038440412991   120.13842677   182.30823449
 H     10   9   8     2.039143394316   118.27288509   180.44498305
 H     12  11   8     1.890976312086   107.30799518   182.21531758
 H     13  11   8     2.028783079944   119.68900273     1.61839493
 H     17  16  14     2.038173449399   120.39418756   358.49503863
 H     18  17  16     2.038488427845   121.07530405   179.28660155
 H     21  20  19     2.056632660634   105.31943217   179.10089323
 H     21  20  19     2.066596219090   111.30845133   297.72140148
 H     21  20  19     2.066319571466   111.29235959    60.46499951
 H     22  19  18     2.037306271484   121.13086140   179.58660348
 H     23  22  19     2.041884587297   120.05843696   179.45157355

---------------------
BASIS SET INFORMATION
---------------------
There are 3 groups of distinct atoms

 Group   1 Type C   : 7s4p1d contracted to 3s2p1d pattern {511/31/1}
 Group   2 Type O   : 7s4p1d contracted to 3s2p1d pattern {511/31/1}
 Group   3 Type H   : 4s1p contracted to 2s1p pattern {31/1}

Atom   0C    basis set group =>   1
Atom   1C    basis set group =>   1
Atom   2C    basis set group =>   1
Atom   3C    basis set group =>   1
Atom   4C    basis set group =>   1
Atom   5C    basis set group =>   1
Atom   6C    basis set group =>   1
Atom   7C    basis set group =>   1
Atom   8C    basis set group =>   1
Atom   9C    basis set group =>   1
Atom  10C    basis set group =>   1
Atom  11O    basis set group =>   2
Atom  12C    basis set group =>   1
Atom  13C    basis set group =>   1
Atom  14O    basis set group =>   2
Atom  15C    basis set group =>   1
Atom  16C    basis set group =>   1
Atom  17C    basis set group =>   1
Atom  18C    basis set group =>   1
Atom  19O    basis set group =>   2
Atom  20C    basis set group =>   1
Atom  21C    basis set group =>   1
Atom  22C    basis set group =>   1
Atom  23H    basis set group =>   3
Atom  24H    basis set group =>   3
Atom  25H    basis set group =>   3
Atom  26H    basis set group =>   3
Atom  27H    basis set group =>   3
Atom  28H    basis set group =>   3
Atom  29H    basis set group =>   3
Atom  30H    basis set group =>   3
Atom  31H    basis set group =>   3
Atom  32H    basis set group =>   3
Atom  33H    basis set group =>   3
Atom  34H    basis set group =>   3
Atom  35H    basis set group =>   3
Atom  36H    basis set group =>   3
Atom  37H    basis set group =>   3
Atom  38H    basis set group =>   3
Atom  39H    basis set group =>   3
Atom  40H    basis set group =>   3
Atom  41H    basis set group =>   3
Atom  42H    basis set group =>   3
Atom  43H    basis set group =>   3
Atom  44H    basis set group =>   3


           ************************************************************
           *        Program running with 4 parallel MPI-processes     *
           *              working on a common directory               *
           ************************************************************
------------------------------------------------------------------------------
                             ORCA STARTUP CALCULATIONS
------------------------------------------------------------------------------
------------------------------------------------------------------------------
                   ___                                                        
                  /   \      - P O W E R E D   B Y -                         
                 /     \                                                     
                 |  |  |   _    _      __       _____    __    __             
                 |  |  |  | |  | |    /  \     |  _  \  |  |  /  |          
                  \  \/   | |  | |   /    \    | | | |  |  | /  /          
                 / \  \   | |__| |  /  /\  \   | |_| |  |  |/  /          
                |  |  |   |  __  | /  /__\  \  |    /   |      \           
                |  |  |   | |  | | |   __   |  |    \   |  |\   \          
                \     /   | |  | | |  |  |  |  | |\  \  |  | \   \       
                 \___/    |_|  |_| |__|  |__|  |_| \__\ |__|  \__/        
                                                                              
                      - O R C A' S   B I G   F R I E N D -                    
                                      &                                       
                       - I N T E G R A L  F E E D E R -                       
                                                                              
 v1 FN, 2020, v2 2021, v3 2022-2024                                           
------------------------------------------------------------------------------


----------------------
SHARK INTEGRAL PACKAGE
----------------------

Number of atoms                             ...     45
Number of basis functions                   ...    432
Number of shells                            ...    204
Maximum angular momentum                    ...      2
Integral batch strategy                     ... SHARK/LIBINT Hybrid
RI-J (if used) integral strategy            ... SPLIT-RIJ (Revised 2003 algorithm where possible)
Printlevel                                  ...      1
Contraction scheme used                     ... SEGMENTED contraction
Prescreening option                         ... SCHWARTZ
   Thresh                                   ... 2.500e-11
   Tcut                                     ... 2.500e-12
   Tpresel                                  ... 2.500e-12 
Coulomb Range Separation                    ... NOT USED
Exchange Range Separation                   ... NOT USED
Multipole approximations                    ... NOT USED
Finite Nucleus Model                        ... NOT USED
CABS basis                                  ... NOT available
Auxiliary Coulomb fitting basis             ... NOT available
Auxiliary J/K fitting basis                 ... NOT available
Auxiliary Correlation fitting basis         ... NOT available
Auxiliary 'external' fitting basis          ... NOT available

Checking pre-screening integrals            ... done (  0.0 sec) Dimension = 204
   => SHARK Basis and OBASIS are compatible. Storing Pre-screening
Shell pair information
Shell pair cut-off parameter TPreSel        ...   2.5e-12
Total number of shell pairs                 ...     20910
Shell pairs after pre-screening             ...     12337
Total number of primitive shell pairs       ...     75056
Primitive shell pairs kept                  ...     29057
          la=0 lb=0:   3899 shell pairs
          la=1 lb=0:   4614 shell pairs
          la=1 lb=1:   1414 shell pairs
          la=2 lb=0:   1421 shell pairs
          la=2 lb=1:    854 shell pairs
          la=2 lb=2:    135 shell pairs

Checking whether 4 symmetric matrices of dimension 432 fit in memory
:Max Core in MB      =   2500.00
 MB in use           =     13.01
 MB left             =   2486.99
 MB needed           =      2.85
 Data fit in memory  = YES
Calculating Nuclear repulsion               ... done (  0.0 sec) ENN=   1743.121930344424 Eh

Diagonalization of the overlap matrix:
Smallest eigenvalue                        ... 2.439e-04
Time for diagonalization                   ...    0.028 sec
Threshold for overlap eigenvalues          ... 1.000e-07
Number of eigenvalues below threshold      ... 0
Time for construction of square roots      ...    0.019 sec
Total time needed                          ...    0.050 sec

-------------------
DFT GRID GENERATION
-------------------

General Integration Accuracy     IntAcc      ... 4.388
Radial Grid Type                 RadialGrid  ... OptM3 with GC (2021)
Angular Grid (max. ang.)         AngularGrid ... 4 (Lebedev-302)
Angular grid pruning method      GridPruning ... 4 (adaptive)
Weight generation scheme         WeightScheme... mBecke (2022)
Basis function cutoff            BFCut       ... 1.0000e-11
Integration weight cutoff        WCut        ... 1.0000e-14
Partially contracted basis set               ... off
Rotationally invariant grid construction     ... off
Angular grids for H and He will be reduced by one unit

Total number of grid points                  ...   207581
Total number of batches                      ...     3262
Average number of points per batch           ...       63
Average number of grid points per atom       ...     4613
Grids setup in   2.8 sec
Initializing property integral containers    ... done (  0.1 sec)

SHARK setup successfully completed in   3.2 seconds

Maximum memory used throughout the entire STARTUP-calculation: 55.4 MB


           ************************************************************
           *        Program running with 4 parallel MPI-processes     *
           *              working on a common directory               *
           ************************************************************
-------------------------------------------------------------------------------
                                 ORCA GUESS
                   Start orbitals & Density for SCF / CASSCF
-------------------------------------------------------------------------------

------------
SCF SETTINGS
------------
Hamiltonian:
 Ab initio Hamiltonian  Method          .... Hartree-Fock(GTOs)


General Settings:
 Integral files         IntName         .... cis
 Hartree-Fock type      HFTyp           .... RHF
 Total Charge           Charge          ....    0
 Multiplicity           Mult            ....    1
 Number of Electrons    NEL             ....  166
 Basis Dimension        Dim             ....  432
 Nuclear Repulsion      ENuc            ....   1743.1219303444 Eh

Convergence Acceleration:
 AO-DIIS                CNVDIIS         .... on
   Start iteration      DIISMaxIt       ....    12
   Startup error        DIISStart       ....  0.200000
   # of expansion vecs  DIISMaxEq       ....     5
   Bias factor          DIISBfac        ....   1.050
   Max. coefficient     DIISMaxC        ....  10.000
 MO-DIIS                CNVKDIIS        .... off
 Trust-Rad. Augm. Hess. CNVTRAH         .... auto
   Auto Start mean grad. ratio tolernc. ....  1.125000
   Auto Start start iteration           ....    50
   Auto Start num. interpolation iter.  ....    10
   Max. Number of Micro iterations      ....    24
   Max. Number of Macro iterations      .... Maxiter - #DIIS iter
   Number of Davidson start vectors     ....     2
   Converg. threshold    (grad. norm)   ....   1.000e-05
   Grad. Scal. Fac. for Micro threshold ....   0.100
   Minimum threshold for Micro iter.    ....   1.000e-02
   NR start threshold (gradient norm)   ....   1.000e-04
   Initial trust radius                 ....   0.400
   Minimum AH scaling param. (alpha)    ....   1.000
   Maximum AH scaling param. (alpha)    .... 1000.000
   Quad. conv. algorithm                .... NR
   White noise on init. David. guess    .... on
   Maximum white noise                  ....   0.010
   Pseudo random numbers                .... off
   Inactive MOs                         .... canonical
   Orbital update algorithm             .... Taylor
   Preconditioner                       .... Diag
   Full preconditioner red. dimension   ....   250
 SOSCF                 CNVSOSCF           .... on
   Start iteration     SOSCFMaxIt         ....   150
   Startup grad/error  SOSCFStart         ....  0.003300
   Hessian update      SOSCFHessUp        .... L-BFGS
   Autom. constraints  SOSCFAutoConstrain .... off
 Level Shifting         CNVShift        .... on
   Level shift para.    LevelShift      ....    0.2500
   Turn off err/grad.   ShiftErr        ....    0.0010
 Zerner damping         CNVZerner       .... off
 Static damping         CNVDamp         .... on
   Fraction old density DampFac         ....    0.7000
   Max. Damping (<1)    DampMax         ....    0.9800
   Min. Damping (>=0)   DampMin         ....    0.0000
   Turn off err/grad.   DampErr         ....    0.1000

SCF Procedure:
 Maximum # iterations   MaxIter         ....   300
 SCF integral mode      SCFMode         .... Direct
   Integral package                     .... SHARK and LIBINT hybrid scheme
 Reset frequency        DirectResetFreq ....    20
 Integral Threshold     Thresh          ....  2.500e-11 Eh
 Primitive CutOff       TCut            ....  2.500e-12 Eh

Convergence Tolerance:
 Convergence Check Mode ConvCheckMode   .... Total+1el-Energy
 Convergence forced     ConvForced      .... 1
 Energy Change          TolE            ....  1.000e-08 Eh
 1-El. energy change                    ....  1.000e-05 Eh
 Orbital Gradient       TolG            ....  1.000e-05
 Orbital Rotation angle TolX            ....  1.000e-05
 DIIS Error             TolErr          ....  5.000e-07

------------------------------
INITIAL GUESS: MODEL POTENTIAL
------------------------------
Loading Hartree-Fock densities                     ... done
Calculating cut-offs                               ... done
Initializing the effective Hamiltonian             ... done
Setting up the integral package (SHARK)            ... done
Starting the Coulomb interaction                   ... done (   0.7 sec)
Making the grid                                    ... done (   0.9 sec)
Mapping shells                                     ... done
Starting the XC term evaluation                    ... done (   0.2 sec)
Transforming the Hamiltonian                       ... done (   0.0 sec)
Diagonalizing the Hamiltonian                      ... done (   0.0 sec)
Back transforming the eigenvectors                 ... done (   0.0 sec)
Now organizing SCF variables                       ... done
                      ------------------
                      INITIAL GUESS DONE (   2.0 sec)
                      ------------------
             **** ENERGY FILE WAS UPDATED (cis.en.tmp) ****
Finished Guess after   2.3 sec
Maximum memory used throughout the entire GUESS-calculation: 19.6 MB


           ************************************************************
           *        Program running with 4 parallel MPI-processes     *
           *              working on a common directory               *
           ************************************************************

-------------------------------------------------------------------------------------------
                                      ORCA LEAN-SCF
                              memory conserving SCF solver
-------------------------------------------------------------------------------------------

----------------------------------------D-I-I-S--------------------------------------------
Iteration    Energy (Eh)           Delta-E    RMSDP     MaxDP     DIISErr   Damp  Time(sec)
-------------------------------------------------------------------------------------------
               ***  Starting incremental Fock matrix formation  ***
    1    -993.2353605073242306     0.00e+00  5.28e-03  7.42e-02  2.19e-01  0.700  20.8
    2    -993.5019716292902103    -2.67e-01  4.15e-03  5.81e-02  1.34e-01  0.700  18.4
                               ***Turning on AO-DIIS***
    3    -993.6694701665012417    -1.67e-01  2.91e-03  4.26e-02  7.64e-02  0.700  18.1
    4    -993.7782138189402303    -1.09e-01  7.11e-03  1.03e-01  5.59e-02  0.000  18.8
    5    -994.0242841724150367    -2.46e-01  5.97e-04  1.45e-02  6.12e-03  0.000  19.8
    6    -994.0253711536995525    -1.09e-03  2.69e-04  6.10e-03  4.79e-03  0.000  17.7
                              *** Initializing SOSCF ***
---------------------------------------S-O-S-C-F--------------------------------------
Iteration    Energy (Eh)           Delta-E    RMSDP     MaxDP     MaxGrad    Time(sec)
--------------------------------------------------------------------------------------
    7    -994.0256488569459634    -2.78e-04  1.31e-04  3.41e-03  2.29e-03    14.4
               *** Restarting incremental Fock matrix formation ***
    8    -994.0257436175927523    -9.48e-05  7.26e-05  1.17e-03  7.36e-04    17.8
    9    -994.0257738783068362    -3.03e-05  8.66e-05  1.72e-03  3.44e-04    13.5
   10    -994.0257850095474623    -1.11e-05  1.86e-05  4.46e-04  1.32e-04    13.2
   11    -994.0257861458733259    -1.14e-06  6.57e-06  1.09e-04  7.01e-05    11.6
   12    -994.0257863648337207    -2.19e-07  3.24e-06  5.94e-05  1.69e-05    10.7
   13    -994.0257864048810461    -4.00e-08  1.71e-06  3.08e-05  1.08e-05    11.3
   14    -994.0257864102115946    -5.33e-09  3.78e-07  8.07e-06  2.19e-06     9.9
                 **** Energy Check signals convergence ****

               *****************************************************
               *                     SUCCESS                       *
               *           SCF CONVERGED AFTER  14 CYCLES          *
               *****************************************************

             **** ENERGY FILE WAS UPDATED (cis.en.tmp) ****

----------------
TOTAL SCF ENERGY
----------------

Total Energy       :       -994.02578640841352 Eh          -27048.81678 eV

Components:
Nuclear Repulsion  :       1743.12193034442384 Eh           47432.75916 eV
Electronic Energy  :      -2737.14771675283737 Eh          -74481.57594 eV
One Electron Energy:      -4815.53963171607120 Eh         -131037.49520 eV
Two Electron Energy:       2078.39191496323383 Eh           56555.91925 eV

Virial components:
Potential Energy   :      -1983.84105738530207 Eh          -53983.05962 eV
Kinetic Energy     :        989.81527097688843 Eh           26934.24283 eV
Virial Ratio       :          2.00425383963552

---------------
SCF CONVERGENCE
---------------

  Last Energy change         ...    5.3305e-09  Tolerance :   1.0000e-08
  Last MAX-Density change    ...    8.0738e-06  Tolerance :   1.0000e-07
  Last RMS-Density change    ...    3.7780e-07  Tolerance :   5.0000e-09
  Last DIIS Error            ...    2.2889e-03  Tolerance :   5.0000e-07
  Last Orbital Gradient      ...    2.1920e-06  Tolerance :   1.0000e-05
  Last Orbital Rotation      ...    5.6518e-06  Tolerance :   1.0000e-05


----------------
ORBITAL ENERGIES
----------------

  NO   OCC          E(Eh)            E(eV) 
   0   2.0000     -20.586358      -560.1833 
   1   2.0000     -20.579071      -559.9850 
   2   2.0000     -20.524405      -558.4975 
   3   2.0000     -11.338330      -308.5317 
   4   2.0000     -11.331074      -308.3342 
   5   2.0000     -11.315625      -307.9138 
   6   2.0000     -11.298930      -307.4595 
   7   2.0000     -11.253954      -306.2357 
   8   2.0000     -11.251280      -306.1629 
   9   2.0000     -11.251215      -306.1611 
  10   2.0000     -11.249609      -306.1174 
  11   2.0000     -11.247732      -306.0663 
  12   2.0000     -11.247146      -306.0504 
  13   2.0000     -11.245668      -306.0102 
  14   2.0000     -11.239224      -305.8348 
  15   2.0000     -11.238333      -305.8106 
  16   2.0000     -11.236943      -305.7728 
  17   2.0000     -11.234798      -305.7144 
  18   2.0000     -11.234643      -305.7102 
  19   2.0000     -11.224766      -305.4414 
  20   2.0000     -11.224619      -305.4374 
  21   2.0000     -11.224548      -305.4355 
  22   2.0000     -11.212478      -305.1070 
  23   2.0000      -1.406155       -38.2634 
  24   2.0000      -1.403729       -38.1974 
  25   2.0000      -1.345264       -36.6065 
  26   2.0000      -1.169077       -31.8122 
  27   2.0000      -1.155615       -31.4459 
  28   2.0000      -1.110532       -30.2191 
  29   2.0000      -1.060484       -28.8572 
  30   2.0000      -1.032889       -28.1063 
  31   2.0000      -1.023830       -27.8598 
  32   2.0000      -1.019182       -27.7333 
  33   2.0000      -0.996076       -27.1046 
  34   2.0000      -0.950331       -25.8598 
  35   2.0000      -0.934178       -25.4203 
  36   2.0000      -0.932922       -25.3861 
  37   2.0000      -0.894184       -24.3320 
  38   2.0000      -0.851640       -23.1743 
  39   2.0000      -0.836964       -22.7749 
  40   2.0000      -0.829026       -22.5590 
  41   2.0000      -0.802569       -21.8390 
  42   2.0000      -0.772327       -21.0161 
  43   2.0000      -0.758526       -20.6405 
  44   2.0000      -0.732525       -19.9330 
  45   2.0000      -0.713136       -19.4054 
  46   2.0000      -0.691392       -18.8137 
  47   2.0000      -0.674265       -18.3477 
  48   2.0000      -0.668687       -18.1959 
  49   2.0000      -0.665251       -18.1024 
  50   2.0000      -0.646803       -17.6004 
  51   2.0000      -0.641582       -17.4583 
  52   2.0000      -0.631539       -17.1850 
  53   2.0000      -0.629857       -17.1393 
  54   2.0000      -0.613200       -16.6860 
  55   2.0000      -0.611826       -16.6486 
  56   2.0000      -0.602987       -16.4081 
  57   2.0000      -0.600673       -16.3451 
  58   2.0000      -0.599842       -16.3225 
  59   2.0000      -0.588440       -16.0123 
  60   2.0000      -0.587997       -16.0002 
  61   2.0000      -0.560990       -15.2653 
  62   2.0000      -0.559047       -15.2124 
  63   2.0000      -0.556306       -15.1379 
  64   2.0000      -0.547172       -14.8893 
  65   2.0000      -0.538760       -14.6604 
  66   2.0000      -0.536711       -14.6047 
  67   2.0000      -0.529954       -14.4208 
  68   2.0000      -0.525251       -14.2928 
  69   2.0000      -0.522729       -14.2242 
  70   2.0000      -0.509270       -13.8579 
  71   2.0000      -0.508557       -13.8385 
  72   2.0000      -0.489469       -13.3191 
  73   2.0000      -0.476835       -12.9753 
  74   2.0000      -0.475130       -12.9289 
  75   2.0000      -0.471132       -12.8201 
  76   2.0000      -0.462483       -12.5848 
  77   2.0000      -0.419280       -11.4092 
  78   2.0000      -0.375145       -10.2082 
  79   2.0000      -0.354096        -9.6354 
  80   2.0000      -0.348458        -9.4820 
  81   2.0000      -0.326480        -8.8840 
  82   2.0000      -0.308399        -8.3920 
  83   0.0000       0.059101         1.6082 
  84   0.0000       0.117448         3.1959 
  85   0.0000       0.125302         3.4097 
  86   0.0000       0.125555         3.4165 
  87   0.0000       0.166051         4.5185 
  88   0.0000       0.177059         4.8180 
  89   0.0000       0.181411         4.9364 
  90   0.0000       0.191542         5.2121 
  91   0.0000       0.209631         5.7043 
  92   0.0000       0.213931         5.8214 
  93   0.0000       0.221746         6.0340 
*Only the first 10 virtual orbitals were printed.

                    ********************************
                    * MULLIKEN POPULATION ANALYSIS *
                    ********************************

-----------------------
MULLIKEN ATOMIC CHARGES
-----------------------
   0 C :    0.085942
   1 C :   -0.473687
   2 C :    0.086242
   3 C :    0.083694
   4 C :    0.016048
   5 C :   -0.057911
   6 C :    0.050076
   7 C :   -0.147049
   8 C :    0.015335
   9 C :   -0.040355
  10 C :    0.411083
  11 O :   -0.371866
  12 C :   -0.336680
  13 C :    0.463041
  14 O :   -0.532837
  15 C :   -0.202813
  16 C :    0.043001
  17 C :   -0.084115
  18 C :    0.350079
  19 O :   -0.541711
  20 C :    0.228180
  21 C :   -0.157888
  22 C :    0.075181
  23 H :    0.030114
  24 H :    0.034144
  25 H :    0.033872
  26 H :    0.024533
  27 H :    0.026665
  28 H :    0.034135
  29 H :    0.024426
  30 H :    0.026652
  31 H :    0.034047
  32 H :    0.033787
  33 H :    0.054618
  34 H :    0.032373
  35 H :    0.031729
  36 H :    0.276986
  37 H :    0.041924
  38 H :    0.038503
  39 H :    0.041246
  40 H :    0.054615
  41 H :    0.034951
  42 H :    0.035842
  43 H :    0.034058
  44 H :    0.059792
Sum of atomic charges:   -0.0000000

--------------------------------
MULLIKEN REDUCED ORBITAL CHARGES
--------------------------------
  0 C s       :     2.981912  s :     2.981912
      pz      :     0.950216  p :     2.894660
      px      :     0.947336
      py      :     0.997108
      dz2     :     0.004086  d :     0.037486
      dxz     :     0.010214
      dyz     :     0.009844
      dx2y2   :     0.010084
      dxy     :     0.003259

  1 C s       :     3.345742  s :     3.345742
      pz      :     1.070115  p :     3.064530
      px      :     0.965335
      py      :     1.029080
      dz2     :     0.008839  d :     0.063415
      dxz     :     0.015389
      dyz     :     0.014132
      dx2y2   :     0.016387
      dxy     :     0.008668

  2 C s       :     3.000253  s :     3.000253
      pz      :     0.935505  p :     2.875850
      px      :     0.987063
      py      :     0.953282
      dz2     :     0.004878  d :     0.037655
      dxz     :     0.010896
      dyz     :     0.008408
      dx2y2   :     0.010909
      dxy     :     0.002565

  3 C s       :     3.001301  s :     3.001301
      pz      :     0.983355  p :     2.877368
      px      :     0.995801
      py      :     0.898212
      dz2     :     0.003854  d :     0.037637
      dxz     :     0.009910
      dyz     :     0.009557
      dx2y2   :     0.010138
      dxy     :     0.004178

  4 C s       :     3.012994  s :     3.012994
      pz      :     0.995692  p :     2.918069
      px      :     0.995093
      py      :     0.927284
      dz2     :     0.012745  d :     0.052889
      dxz     :     0.016587
      dyz     :     0.008189
      dx2y2   :     0.008139
      dxy     :     0.007230

  5 C s       :     3.166764  s :     3.166764
      pz      :     0.955279  p :     2.847483
      px      :     0.887719
      py      :     1.004486
      dz2     :     0.010991  d :     0.043663
      dxz     :     0.014516
      dyz     :     0.005922
      dx2y2   :     0.006716
      dxy     :     0.005518

  6 C s       :     3.158817  s :     3.158817
      pz      :     0.929394  p :     2.746239
      px      :     0.900723
      py      :     0.916121
      dz2     :     0.010023  d :     0.044869
      dxz     :     0.014041
      dyz     :     0.004257
      dx2y2   :     0.007917
      dxy     :     0.008631

  7 C s       :     3.031148  s :     3.031148
      pz      :     1.038323  p :     3.065905
      px      :     0.965095
      py      :     1.062488
      dz2     :     0.012770  d :     0.049996
      dxz     :     0.015736
      dyz     :     0.007410
      dx2y2   :     0.007613
      dxy     :     0.006466

  8 C s       :     3.141715  s :     3.141715
      pz      :     0.941331  p :     2.797717
      px      :     0.915237
      py      :     0.941148
      dz2     :     0.011340  d :     0.045233
      dxz     :     0.014323
      dyz     :     0.006520
      dx2y2   :     0.006999
      dxy     :     0.006051

  9 C s       :     3.155925  s :     3.155925
      pz      :     0.926210  p :     2.840857
      px      :     0.914506
      py      :     1.000141
      dz2     :     0.010688  d :     0.043573
      dxz     :     0.013436
      dyz     :     0.004122
      dx2y2   :     0.007822
      dxy     :     0.007505

 10 C s       :     3.041646  s :     3.041646
      pz      :     0.751740  p :     2.449338
      px      :     0.970051
      py      :     0.727546
      dz2     :     0.023801  d :     0.097933
      dxz     :     0.022153
      dyz     :     0.018009
      dx2y2   :     0.016858
      dxy     :     0.017112

 11 O s       :     3.716438  s :     3.716438
      pz      :     1.481413  p :     4.639495
      px      :     1.511455
      py      :     1.646627
      dz2     :     0.004371  d :     0.015933
      dxz     :     0.001659
      dyz     :     0.004693
      dx2y2   :     0.004236
      dxy     :     0.000973

 12 C s       :     3.166239  s :     3.166239
      pz      :     1.079348  p :     3.135359
      px      :     0.888120
      py      :     1.167891
      dz2     :     0.005291  d :     0.035082
      dxz     :     0.010056
      dyz     :     0.004356
      dx2y2   :     0.008358
      dxy     :     0.007021

 13 C s       :     3.035563  s :     3.035563
      pz      :     0.765236  p :     2.389701
      px      :     0.913292
      py      :     0.711173
      dz2     :     0.024835  d :     0.111694
      dxz     :     0.032967
      dyz     :     0.017650
      dx2y2   :     0.015841
      dxy     :     0.020401

 14 O s       :     3.814244  s :     3.814244
      pz      :     1.392157  p :     4.700846
      px      :     1.846348
      py      :     1.462341
      dz2     :     0.005995  d :     0.017747
      dxz     :     0.002211
      dyz     :     0.006188
      dx2y2   :     0.002221
      dxy     :     0.001131

 15 C s       :     3.037442  s :     3.037442
      pz      :     1.017801  p :     3.117240
      px      :     1.012878
      py      :     1.086560
      dz2     :     0.012735  d :     0.048131
      dxz     :     0.015448
      dyz     :     0.007530
      dx2y2   :     0.006429
      dxy     :     0.005989

 16 C s       :     3.133553  s :     3.133553
      pz      :     0.943239  p :     2.777215
      px      :     0.913838
      py      :     0.920138
      dz2     :     0.011730  d :     0.046231
      dxz     :     0.014029
      dyz     :     0.007807
      dx2y2   :     0.006786
      dxy     :     0.005878

 17 C s       :     3.183964  s :     3.183964
      pz      :     0.909252  p :     2.858687
      px      :     0.913679
      py      :     1.035755
      dz2     :     0.009278  d :     0.041465
      dxz     :     0.013606
      dyz     :     0.004793
      dx2y2   :     0.007118
      dxy     :     0.006670

 18 C s       :     2.947802  s :     2.947802
      pz      :     0.952266  p :     2.612889
      px      :     0.802051
      py      :     0.858572
      dz2     :     0.018325  d :     0.089231
      dxz     :     0.026560
      dyz     :     0.012889
      dx2y2   :     0.015342
      dxy     :     0.016114

 19 O s       :     3.785227  s :     3.785227
      pz      :     1.665628  p :     4.738024
      px      :     1.286878
      py      :     1.785519
      dz2     :     0.002033  d :     0.018459
      dxz     :     0.008426
      dyz     :     0.002471
      dx2y2   :     0.002725
      dxy     :     0.002804

 20 C s       :     3.017858  s :     3.017858
      pz      :     0.932752  p :     2.689821
      px      :     0.756779
      py      :     1.000290
      dz2     :     0.005198  d :     0.064141
      dxz     :     0.019531
      dyz     :     0.014292
      dx2y2   :     0.014290
      dxy     :     0.010830

 21 C s       :     3.182614  s :     3.182614
      pz      :     0.914385  p :     2.933553
      px      :     0.939129
      py      :     1.080039
      dz2     :     0.012038  d :     0.041721
      dxz     :     0.012036
      dyz     :     0.006457
      dx2y2   :     0.006050
      dxy     :     0.005141

 22 C s       :     3.152952  s :     3.152952
      pz      :     0.937383  p :     2.725917
      px      :     0.903575
      py      :     0.884959
      dz2     :     0.010519  d :     0.045949
      dxz     :     0.013233
      dyz     :     0.004727
      dx2y2   :     0.008508
      dxy     :     0.008961

 23 H s       :     0.944535  s :     0.944535
      pz      :     0.005738  p :     0.025352
      px      :     0.014319
      py      :     0.005295

 24 H s       :     0.940519  s :     0.940519
      pz      :     0.005390  p :     0.025337
      px      :     0.003955
      py      :     0.015992

 25 H s       :     0.940818  s :     0.940818
      pz      :     0.011481  p :     0.025310
      px      :     0.004257
      py      :     0.009572

 26 H s       :     0.950053  s :     0.950053
      pz      :     0.011604  p :     0.025414
      px      :     0.010041
      py      :     0.003769

 27 H s       :     0.947995  s :     0.947995
      pz      :     0.005490  p :     0.025340
      px      :     0.015345
      py      :     0.004505

 28 H s       :     0.940666  s :     0.940666
      pz      :     0.005166  p :     0.025199
      px      :     0.003941
      py      :     0.016092

 29 H s       :     0.950118  s :     0.950118
      pz      :     0.011843  p :     0.025457
      px      :     0.010251
      py      :     0.003362

 30 H s       :     0.947996  s :     0.947996
      pz      :     0.005654  p :     0.025352
      px      :     0.015152
      py      :     0.004546

 31 H s       :     0.940764  s :     0.940764
      pz      :     0.011209  p :     0.025189
      px      :     0.005211
      py      :     0.008769

 32 H s       :     0.939870  s :     0.939870
      pz      :     0.009784  p :     0.026344
      px      :     0.012374
      py      :     0.004185

 33 H s       :     0.918790  s :     0.918790
      pz      :     0.018226  p :     0.026592
      px      :     0.003106
      py      :     0.005259

 34 H s       :     0.941447  s :     0.941447
      pz      :     0.009773  p :     0.026180
      px      :     0.012544
      py      :     0.003863

 35 H s       :     0.942187  s :     0.942187
      pz      :     0.017793  p :     0.026084
      px      :     0.002880
      py      :     0.005411

 36 H s       :     0.641989  s :     0.641989
      pz      :     0.014357  p :     0.081024
      px      :     0.053407
      py      :     0.013260

 37 H s       :     0.931121  s :     0.931121
      pz      :     0.013708  p :     0.026955
      px      :     0.002202
      py      :     0.011046

 38 H s       :     0.935360  s :     0.935360
      pz      :     0.008918  p :     0.026137
      px      :     0.013012
      py      :     0.004207

 39 H s       :     0.932423  s :     0.932423
      pz      :     0.018606  p :     0.026331
      px      :     0.002838
      py      :     0.004887

 40 H s       :     0.920960  s :     0.920960
      pz      :     0.009966  p :     0.024426
      px      :     0.008507
      py      :     0.005953

 41 H s       :     0.940092  s :     0.940092
      pz      :     0.011388  p :     0.024957
      px      :     0.002350
      py      :     0.011219

 42 H s       :     0.939167  s :     0.939167
      pz      :     0.006082  p :     0.024991
      px      :     0.004228
      py      :     0.014680

 43 H s       :     0.939493  s :     0.939493
      pz      :     0.008892  p :     0.026449
      px      :     0.012832
      py      :     0.004725

 44 H s       :     0.913521  s :     0.913521
      pz      :     0.019112  p :     0.026686
      px      :     0.002904
      py      :     0.004670



                     *******************************
                     * LOEWDIN POPULATION ANALYSIS *
                     *******************************

----------------------
LOEWDIN ATOMIC CHARGES
----------------------
   0 C :   -0.015861
   1 C :   -0.056193
   2 C :   -0.008941
   3 C :   -0.009494
   4 C :    0.012026
   5 C :   -0.036408
   6 C :    0.025469
   7 C :   -0.071980
   8 C :    0.012864
   9 C :   -0.029300
  10 C :    0.205623
  11 O :   -0.092514
  12 C :   -0.221414
  13 C :    0.187147
  14 O :   -0.318425
  15 C :   -0.105074
  16 C :    0.022692
  17 C :   -0.059289
  18 C :    0.119582
  19 O :   -0.185147
  20 C :    0.134916
  21 C :   -0.091275
  22 C :    0.051294
  23 H :    0.017158
  24 H :    0.014800
  25 H :    0.015119
  26 H :    0.012215
  27 H :    0.014061
  28 H :    0.018030
  29 H :    0.011861
  30 H :    0.014245
  31 H :    0.017943
  32 H :    0.026220
  33 H :    0.035414
  34 H :    0.027258
  35 H :    0.022235
  36 H :    0.094049
  37 H :    0.021278
  38 H :    0.028958
  39 H :    0.032144
  40 H :    0.022711
  41 H :    0.008881
  42 H :    0.009283
  43 H :    0.026601
  44 H :    0.039239

-------------------------------
LOEWDIN REDUCED ORBITAL CHARGES
-------------------------------
  0 C s       :     2.826968  s :     2.826968
      pz      :     1.028210  p :     3.103344
      px      :     1.027105
      py      :     1.048029
      dz2     :     0.009555  d :     0.085550
      dxz     :     0.023392
      dyz     :     0.022417
      dx2y2   :     0.022697
      dxy     :     0.007489

  1 C s       :     2.839408  s :     2.839408
      pz      :     1.037382  p :     3.088121
      px      :     1.013983
      py      :     1.036756
      dz2     :     0.017422  d :     0.128664
      dxz     :     0.032258
      dyz     :     0.028167
      dx2y2   :     0.034115
      dxy     :     0.016702

  2 C s       :     2.829143  s :     2.829143
      pz      :     1.019580  p :     3.094045
      px      :     1.044056
      py      :     1.030410
      dz2     :     0.011520  d :     0.085753
      dxz     :     0.024632
      dyz     :     0.019145
      dx2y2   :     0.024609
      dxy     :     0.005847

  3 C s       :     2.829025  s :     2.829025
      pz      :     1.043322  p :     3.094750
      px      :     1.048597
      py      :     1.002831
      dz2     :     0.008845  d :     0.085720
      dxz     :     0.022232
      dyz     :     0.021873
      dx2y2   :     0.023059
      dxy     :     0.009711

  4 C s       :     2.847426  s :     2.847426
      pz      :     1.067980  p :     3.024070
      px      :     1.046123
      py      :     0.909967
      dz2     :     0.029608  d :     0.116478
      dxz     :     0.038832
      dyz     :     0.016406
      dx2y2   :     0.016986
      dxy     :     0.014645

  5 C s       :     2.840363  s :     2.840363
      pz      :     1.046464  p :     3.095096
      px      :     1.047381
      py      :     1.001252
      dz2     :     0.025875  d :     0.100949
      dxz     :     0.037221
      dyz     :     0.012217
      dx2y2   :     0.014692
      dxy     :     0.010944

  6 C s       :     2.844583  s :     2.844583
      pz      :     1.044049  p :     3.028574
      px      :     1.053761
      py      :     0.930764
      dz2     :     0.024414  d :     0.101373
      dxz     :     0.033017
      dyz     :     0.008146
      dx2y2   :     0.018194
      dxy     :     0.017603

  7 C s       :     2.833453  s :     2.833453
      pz      :     1.075453  p :     3.124467
      px      :     1.027056
      py      :     1.021958
      dz2     :     0.030294  d :     0.114060
      dxz     :     0.038263
      dyz     :     0.015150
      dx2y2   :     0.017213
      dxy     :     0.013139

  8 C s       :     2.842586  s :     2.842586
      pz      :     1.042498  p :     3.042014
      px      :     1.052938
      py      :     0.946578
      dz2     :     0.026216  d :     0.102536
      dxz     :     0.036028
      dyz     :     0.013479
      dx2y2   :     0.015101
      dxy     :     0.011712

  9 C s       :     2.839369  s :     2.839369
      pz      :     1.037040  p :     3.089223
      px      :     1.056342
      py      :     0.995842
      dz2     :     0.026762  d :     0.100708
      dxz     :     0.032260
      dyz     :     0.007954
      dx2y2   :     0.018308
      dxy     :     0.015424

 10 C s       :     2.840460  s :     2.840460
      pz      :     0.855917  p :     2.755013
      px      :     1.090168
      py      :     0.808929
      dz2     :     0.048221  d :     0.198904
      dxz     :     0.046098
      dyz     :     0.036177
      dx2y2   :     0.034160
      dxy     :     0.034247

 11 O s       :     3.414194  s :     3.414194
      pz      :     1.492928  p :     4.651327
      px      :     1.527217
      py      :     1.631182
      dz2     :     0.006899  d :     0.026994
      dxz     :     0.003455
      dyz     :     0.008091
      dx2y2   :     0.006993
      dxy     :     0.001556

 12 C s       :     2.844223  s :     2.844223
      pz      :     1.108217  p :     3.290204
      px      :     1.026335
      py      :     1.155652
      dz2     :     0.012850  d :     0.086987
      dxz     :     0.024739
      dyz     :     0.011078
      dx2y2   :     0.021974
      dxy     :     0.016345

 13 C s       :     2.846438  s :     2.846438
      pz      :     0.894208  p :     2.733581
      px      :     1.051839
      py      :     0.787534
      dz2     :     0.049342  d :     0.232834
      dxz     :     0.071674
      dyz     :     0.037692
      dx2y2   :     0.030770
      dxy     :     0.043356

 14 O s       :     3.547766  s :     3.547766
      pz      :     1.461887  p :     4.742765
      px      :     1.794167
      py      :     1.486710
      dz2     :     0.008141  d :     0.027895
      dxz     :     0.003955
      dyz     :     0.010973
      dx2y2   :     0.002929
      dxy     :     0.001896

 15 C s       :     2.839284  s :     2.839284
      pz      :     1.068137  p :     3.154813
      px      :     1.038942
      py      :     1.047735
      dz2     :     0.030606  d :     0.110976
      dxz     :     0.037793
      dyz     :     0.015764
      dx2y2   :     0.014462
      dxy     :     0.012351

 16 C s       :     2.843858  s :     2.843858
      pz      :     1.051660  p :     3.029222
      px      :     1.043156
      py      :     0.934406
      dz2     :     0.027210  d :     0.104228
      dxz     :     0.035078
      dyz     :     0.016581
      dx2y2   :     0.013947
      dxy     :     0.011413

 17 C s       :     2.844998  s :     2.844998
      pz      :     1.038544  p :     3.118482
      px      :     1.046274
      py      :     1.033663
      dz2     :     0.023622  d :     0.095809
      dxz     :     0.032935
      dyz     :     0.008993
      dx2y2   :     0.016135
      dxy     :     0.014124

 18 C s       :     2.828050  s :     2.828050
      pz      :     1.062476  p :     2.864621
      px      :     0.917781
      py      :     0.884364
      dz2     :     0.040019  d :     0.187747
      dxz     :     0.059114
      dyz     :     0.026296
      dx2y2   :     0.030556
      dxy     :     0.031763

 19 O s       :     3.433461  s :     3.433461
      pz      :     1.660509  p :     4.720445
      px      :     1.300082
      py      :     1.759853
      dz2     :     0.003441  d :     0.031241
      dxz     :     0.013577
      dyz     :     0.003223
      dx2y2   :     0.005542
      dxy     :     0.005458

 20 C s       :     2.832539  s :     2.832539
      pz      :     0.998485  p :     2.894871
      px      :     0.841869
      py      :     1.054517
      dz2     :     0.010741  d :     0.137674
      dxz     :     0.041885
      dyz     :     0.033108
      dx2y2   :     0.028731
      dxy     :     0.023209

 21 C s       :     2.841807  s :     2.841807
      pz      :     1.037720  p :     3.152653
      px      :     1.053706
      py      :     1.061226
      dz2     :     0.029195  d :     0.096815
      dxz     :     0.031392
      dyz     :     0.013372
      dx2y2   :     0.012749
      dxy     :     0.010107

 22 C s       :     2.844869  s :     2.844869
      pz      :     1.052118  p :     3.000554
      px      :     1.038733
      py      :     0.909703
      dz2     :     0.025772  d :     0.103283
      dxz     :     0.030832
      dyz     :     0.009139
      dx2y2   :     0.018832
      dxy     :     0.018707

 23 H s       :     0.916531  s :     0.916531
      pz      :     0.016790  p :     0.066311
      px      :     0.034839
      py      :     0.014682

 24 H s       :     0.918149  s :     0.918149
      pz      :     0.016423  p :     0.067051
      px      :     0.013225
      py      :     0.037403

 25 H s       :     0.917870  s :     0.917870
      pz      :     0.029441  p :     0.067011
      px      :     0.013792
      py      :     0.023778

 26 H s       :     0.920707  s :     0.920707
      pz      :     0.029656  p :     0.067078
      px      :     0.024854
      py      :     0.012568

 27 H s       :     0.919458  s :     0.919458
      pz      :     0.016520  p :     0.066481
      px      :     0.036090
      py      :     0.013872

 28 H s       :     0.915324  s :     0.915324
      pz      :     0.015527  p :     0.066646
      px      :     0.012154
      py      :     0.038965

 29 H s       :     0.920948  s :     0.920948
      pz      :     0.029026  p :     0.067190
      px      :     0.025195
      py      :     0.012970

 30 H s       :     0.919289  s :     0.919289
      pz      :     0.015905  p :     0.066466
      px      :     0.035352
      py      :     0.015208

 31 H s       :     0.915402  s :     0.915402
      pz      :     0.027258  p :     0.066655
      px      :     0.014562
      py      :     0.024835

 32 H s       :     0.902488  s :     0.902488
      pz      :     0.025316  p :     0.071293
      px      :     0.031267
      py      :     0.014710

 33 H s       :     0.893017  s :     0.893017
      pz      :     0.043602  p :     0.071569
      px      :     0.011916
      py      :     0.016051

 34 H s       :     0.902585  s :     0.902585
      pz      :     0.025483  p :     0.070157
      px      :     0.031374
      py      :     0.013299

 35 H s       :     0.907539  s :     0.907539
      pz      :     0.041740  p :     0.070226
      px      :     0.011430
      py      :     0.017056

 36 H s       :     0.684916  s :     0.684916
      pz      :     0.036439  p :     0.221036
      px      :     0.147264
      py      :     0.037332

 37 H s       :     0.900807  s :     0.900807
      pz      :     0.035822  p :     0.077915
      px      :     0.010947
      py      :     0.031146

 38 H s       :     0.901162  s :     0.901162
      pz      :     0.023883  p :     0.069880
      px      :     0.032190
      py      :     0.013806

 39 H s       :     0.896459  s :     0.896459
      pz      :     0.043917  p :     0.071398
      px      :     0.010786
      py      :     0.016694

 40 H s       :     0.913552  s :     0.913552
      pz      :     0.025088  p :     0.063736
      px      :     0.022845
      py      :     0.015803

 41 H s       :     0.926269  s :     0.926269
      pz      :     0.028426  p :     0.064849
      px      :     0.008578
      py      :     0.027846

 42 H s       :     0.925789  s :     0.925789
      pz      :     0.016325  p :     0.064928
      px      :     0.013312
      py      :     0.035292

 43 H s       :     0.900947  s :     0.900947
      pz      :     0.023688  p :     0.072452
      px      :     0.031855
      py      :     0.016909

 44 H s       :     0.889607  s :     0.889607
      pz      :     0.045634  p :     0.071154
      px      :     0.011062
      py      :     0.014458



                      *****************************
                      * MAYER POPULATION ANALYSIS *
                      *****************************

  NA   - Mulliken gross atomic population
  ZA   - Total nuclear charge
  QA   - Mulliken gross atomic charge
  VA   - Mayer's total valence
  BVA  - Mayer's bonded valence
  FA   - Mayer's free valence

  ATOM       NA         ZA         QA         VA         BVA        FA
  0 C      5.9141     6.0000     0.0859     3.8775     3.8775    -0.0000
  1 C      6.4737     6.0000    -0.4737     3.9371     3.9371    -0.0000
  2 C      5.9138     6.0000     0.0862     3.8257     3.8257     0.0000
  3 C      5.9163     6.0000     0.0837     3.8279     3.8279    -0.0000
  4 C      5.9840     6.0000     0.0160     3.6483     3.6483    -0.0000
  5 C      6.0579     6.0000    -0.0579     3.9395     3.9395    -0.0000
  6 C      5.9499     6.0000     0.0501     3.8938     3.8938     0.0000
  7 C      6.1470     6.0000    -0.1470     3.7904     3.7904     0.0000
  8 C      5.9847     6.0000     0.0153     3.9474     3.9474     0.0000
  9 C      6.0404     6.0000    -0.0404     3.9207     3.9207     0.0000
 10 C      5.5889     6.0000     0.4111     3.9148     3.9148     0.0000
 11 O      8.3719     8.0000    -0.3719     2.1455     2.1455    -0.0000
 12 C      6.3367     6.0000    -0.3367     3.6677     3.6677     0.0000
 13 C      5.5370     6.0000     0.4630     3.8713     3.8713     0.0000
 14 O      8.5328     8.0000    -0.5328     1.9511     1.9511     0.0000
 15 C      6.2028     6.0000    -0.2028     3.7786     3.7786    -0.0000
 16 C      5.9570     6.0000     0.0430     3.8827     3.8827     0.0000
 17 C      6.0841     6.0000    -0.0841     3.9137     3.9137     0.0000
 18 C      5.6499     6.0000     0.3501     3.7622     3.7622    -0.0000
 19 O      8.5417     8.0000    -0.5417     1.9169     1.9169    -0.0000
 20 C      5.7718     6.0000     0.2282     3.8324     3.8324    -0.0000
 21 C      6.1579     6.0000    -0.1579     3.8362     3.8362    -0.0000
 22 C      5.9248     6.0000     0.0752     3.9256     3.9256    -0.0000
 23 H      0.9699     1.0000     0.0301     0.9883     0.9883    -0.0000
 24 H      0.9659     1.0000     0.0341     0.9832     0.9832    -0.0000
 25 H      0.9661     1.0000     0.0339     0.9837     0.9837     0.0000
 26 H      0.9755     1.0000     0.0245     0.9931     0.9931     0.0000
 27 H      0.9733     1.0000     0.0267     0.9881     0.9881    -0.0000
 28 H      0.9659     1.0000     0.0341     0.9883     0.9883     0.0000
 29 H      0.9756     1.0000     0.0244     0.9923     0.9923    -0.0000
 30 H      0.9733     1.0000     0.0267     0.9884     0.9884     0.0000
 31 H      0.9660     1.0000     0.0340     0.9880     0.9880    -0.0000
 32 H      0.9662     1.0000     0.0338     0.9980     0.9980    -0.0000
 33 H      0.9454     1.0000     0.0546     1.0042     1.0042    -0.0000
 34 H      0.9676     1.0000     0.0324     0.9961     0.9961    -0.0000
 35 H      0.9683     1.0000     0.0317     0.9898     0.9898     0.0000
 36 H      0.7230     1.0000     0.2770     1.0089     1.0089    -0.0000
 37 H      0.9581     1.0000     0.0419     1.0030     1.0030    -0.0000
 38 H      0.9615     1.0000     0.0385     0.9958     0.9958     0.0000
 39 H      0.9588     1.0000     0.0412     0.9995     0.9995     0.0000
 40 H      0.9454     1.0000     0.0546     0.9880     0.9880     0.0000
 41 H      0.9650     1.0000     0.0350     0.9800     0.9800     0.0000
 42 H      0.9642     1.0000     0.0358     0.9803     0.9803     0.0000
 43 H      0.9659     1.0000     0.0341     0.9987     0.9987    -0.0000
 44 H      0.9402     1.0000     0.0598     1.0062     1.0062    -0.0000

  Mayer bond orders larger than 0.100000
B(  0-C ,  1-C ) :   1.0370 B(  0-C , 23-H ) :   0.9832 B(  0-C , 24-H ) :   0.9768 
B(  0-C , 25-H ) :   0.9778 B(  1-C ,  2-C ) :   0.9967 B(  1-C ,  3-C ) :   0.9998 
B(  1-C ,  4-C ) :   0.8943 B(  2-C , 26-H ) :   0.9840 B(  2-C , 27-H ) :   0.9859 
B(  2-C , 28-H ) :   0.9829 B(  3-C , 29-H ) :   0.9837 B(  3-C , 30-H ) :   0.9859 
B(  3-C , 31-H ) :   0.9836 B(  4-C ,  5-C ) :   1.4562 B(  4-C ,  9-C ) :   1.3818 
B(  5-C ,  6-C ) :   1.4082 B(  5-C , 32-H ) :   1.0036 B(  6-C ,  7-C ) :   1.4085 
B(  6-C , 33-H ) :   1.0016 B(  7-C ,  8-C ) :   1.3775 B(  7-C , 10-C ) :   1.0186 
B(  8-C ,  9-C ) :   1.4838 B(  8-C , 34-H ) :   0.9994 B(  9-C , 35-H ) :   1.0050 
B( 10-C , 11-O ) :   1.2633 B( 10-C , 12-C ) :   1.5890 B( 11-O , 36-H ) :   0.8547 
B( 12-C , 13-C ) :   1.1066 B( 12-C , 37-H ) :   0.9698 B( 13-C , 14-O ) :   1.7598 
B( 13-C , 15-C ) :   1.0069 B( 14-O , 36-H ) :   0.1247 B( 15-C , 16-C ) :   1.3610 
B( 15-C , 22-C ) :   1.4281 B( 16-C , 17-C ) :   1.4670 B( 16-C , 38-H ) :   0.9981 
B( 17-C , 18-C ) :   1.3715 B( 17-C , 39-H ) :   1.0071 B( 18-C , 19-O ) :   1.0159 
B( 18-C , 21-C ) :   1.3434 B( 19-O , 20-C ) :   0.8604 B( 20-C , 40-H ) :   0.9931 
B( 20-C , 41-H ) :   0.9851 B( 20-C , 42-H ) :   0.9850 B( 21-C , 22-C ) :   1.3994 
B( 21-C , 43-H ) :   1.0109 B( 22-C , 44-H ) :   0.9994 

-------
TIMINGS
-------

Total SCF time: 0 days 0 hours 3 min 44 sec 

Total time                  ....     224.712 sec
Sum of individual times     ....     216.519 sec  ( 96.4%)

SCF preparation             ....       0.237 sec  (  0.1%)
Fock matrix formation       ....     212.660 sec  ( 94.6%)
  Startup                   ....       0.041 sec  (  0.0% of F)
  Coulomb+Exchange Fock     ....     220.023 sec  (103.5% of F)
Diagonalization             ....       0.000 sec  (  0.0%)
Density matrix formation    ....       0.606 sec  (  0.3%)
Total Energy calculation    ....       0.342 sec  (  0.2%)
Population analysis         ....       0.224 sec  (  0.1%)
Orbital Transformation      ....       0.176 sec  (  0.1%)
Orbital Orthonormalization  ....       0.000 sec  (  0.0%)
DIIS solution               ....       1.345 sec  (  0.6%)
SOSCF solution              ....       0.902 sec  (  0.4%)
Finished LeanSCF after 225.0 sec

Maximum memory used throughout the entire LEANSCF-calculation: 22.7 MB


           ************************************************************
           *        Program running with 4 parallel MPI-processes     *
           *              working on a common directory               *
[...]
    79a ->  84a  :     0.027013 (c= -0.16435515)
    79a ->  85a  :     0.229556 (c= -0.47912047)
    79a ->  86a  :     0.075333 (c=  0.27446929)
    80a ->  83a  :     0.010526 (c= -0.10259816)
    81a ->  83a  :     0.246413 (c=  0.49639969)
    81a ->  85a  :     0.010138 (c=  0.10068775)
    81a ->  90a  :     0.060905 (c=  0.24678953)
    81a -> 101a  :     0.011383 (c=  0.10669153)
    82a ->  83a  :     0.037079 (c= -0.19256003)
    82a ->  84a  :     0.156713 (c=  0.39587034)
    82a ->  90a  :     0.019354 (c= -0.13912039)

STATE  8:  E=   0.276697 au      7.529 eV    60728.0 cm**-1 <S**2> =   0.000000 Mult 1
    78a ->  83a  :     0.033833 (c= -0.18393835)
    78a ->  86a  :     0.022100 (c= -0.14866162)
    79a ->  83a  :     0.010459 (c= -0.10226793)
    79a ->  85a  :     0.074512 (c=  0.27296842)
    80a ->  83a  :     0.258325 (c= -0.50825701)
    80a ->  84a  :     0.032279 (c=  0.17966432)
    80a ->  86a  :     0.014768 (c=  0.12152194)
    81a ->  84a  :     0.031026 (c=  0.17614268)
    81a ->  86a  :     0.077639 (c=  0.27863733)
    82a ->  83a  :     0.019816 (c=  0.14077064)
    82a ->  84a  :     0.104109 (c=  0.32265993)
    82a ->  85a  :     0.058257 (c=  0.24136416)
    82a ->  86a  :     0.162427 (c=  0.40302241)

STATE  9:  E=   0.282302 au      7.682 eV    61958.0 cm**-1 <S**2> =   0.000000 Mult 1
    78a ->  83a  :     0.040571 (c= -0.20142222)
    79a ->  83a  :     0.372825 (c= -0.61059428)
    79a ->  84a  :     0.084246 (c= -0.29025236)
    79a ->  85a  :     0.010088 (c=  0.10044020)
    80a ->  83a  :     0.036684 (c=  0.19153169)
    81a ->  85a  :     0.161954 (c= -0.40243470)
    82a ->  84a  :     0.030653 (c=  0.17508006)
    82a ->  85a  :     0.065464 (c=  0.25585884)
    82a ->  86a  :     0.123458 (c= -0.35136571)

STATE 10:  E=   0.285848 au      7.778 eV    62736.4 cm**-1 <S**2> =   0.000000 Mult 1
    78a ->  83a  :     0.327381 (c=  0.57217176)
    78a ->  90a  :     0.016036 (c=  0.12663472)
    79a ->  83a  :     0.044738 (c= -0.21151359)
    80a ->  83a  :     0.022241 (c= -0.14913575)
    80a ->  85a  :     0.067572 (c= -0.25994650)
    80a ->  86a  :     0.259138 (c= -0.50905572)
    81a ->  83a  :     0.045698 (c= -0.21377084)
    81a ->  86a  :     0.024261 (c=  0.15575967)
    81a ->  90a  :     0.010866 (c= -0.10423836)
    82a ->  85a  :     0.035044 (c=  0.18720060)
    82a ->  86a  :     0.018623 (c=  0.13646701)

STATE 11:  E=   0.295304 au      8.036 eV    64811.8 cm**-1 <S**2> =   0.000000 Mult 1
    78a ->  84a  :     0.101831 (c=  0.31910915)
    79a ->  83a  :     0.053956 (c=  0.23228533)
    79a ->  85a  :     0.030080 (c=  0.17343641)
    79a ->  86a  :     0.026169 (c= -0.16176788)
    80a ->  83a  :     0.025104 (c=  0.15844181)
    80a ->  85a  :     0.031102 (c= -0.17635718)
    80a ->  86a  :     0.135491 (c= -0.36809101)
    81a ->  84a  :     0.097398 (c=  0.31208607)
    81a ->  86a  :     0.037196 (c= -0.19286350)
    82a ->  84a  :     0.236674 (c=  0.48649154)
    82a ->  85a  :     0.043028 (c= -0.20743287)
    82a ->  86a  :     0.034605 (c= -0.18602294)
    82a -> 101a  :     0.025389 (c=  0.15933840)

STATE 12:  E=   0.310494 au      8.449 eV    68145.6 cm**-1 <S**2> =   0.000000 Mult 1
    75a ->  83a  :     0.011666 (c= -0.10801055)
    79a ->  85a  :     0.167749 (c= -0.40957195)
    79a ->  86a  :     0.045905 (c=  0.21425460)
    81a ->  83a  :     0.018774 (c= -0.13701947)
    81a ->  84a  :     0.243281 (c=  0.49323557)
    81a ->  86a  :     0.011843 (c= -0.10882776)
    81a ->  90a  :     0.053631 (c= -0.23158267)
    82a ->  83a  :     0.021472 (c=  0.14653483)
    82a ->  84a  :     0.060296 (c= -0.24555228)
    82a ->  85a  :     0.080738 (c=  0.28414446)
    82a ->  87a  :     0.014669 (c= -0.12111711)
    82a ->  88a  :     0.078986 (c=  0.28104397)
    82a ->  89a  :     0.018327 (c= -0.13537837)
    82a ->  90a  :     0.016725 (c=  0.12932679)

Storing amplitudes in GBW file ... 
... GBW file created

----------------------
CIS-EXCITATION SPECTRA
----------------------

Center of mass = (  1.1867,  0.3624, -0.4363)
Generating CIS transition densities           ... done

----------------------------------------------------------------------------------------------------
                     ABSORPTION SPECTRUM VIA TRANSITION ELECTRIC DIPOLE MOMENTS    
----------------------------------------------------------------------------------------------------
     Transition      Energy     Energy  Wavelength fosc(D2)      D2        DX        DY        DZ   
                      (eV)      (cm-1)    (nm)                 (au**2)    (au)      (au)      (au)  
----------------------------------------------------------------------------------------------------
  0-1A  ->  1-1A    4.998540   40315.9   248.0   1.266103160  10.33875  -3.21273   0.05672   0.11800
  0-1A  ->  2-1A    5.437741   43858.3   228.0   0.005269432   0.03955  -0.13138  -0.11463   0.09568
  0-1A  ->  3-1A    5.872481   47364.8   211.1   0.092398171   0.64222   0.51648  -0.48278   0.37736
  0-1A  ->  4-1A    5.893618   47535.2   210.4   0.030455418   0.21092   0.27027  -0.19471   0.31617
  0-1A  ->  5-1A    5.981467   48243.8   207.3   0.004334136   0.02958   0.00704  -0.01902   0.17078
  0-1A  ->  6-1A    6.404648   51657.0   193.6   0.059711909   0.38055  -0.61105   0.05677  -0.06280
  0-1A  ->  7-1A    7.354865   59321.0   168.6   0.328146282   1.82110  -1.25526   0.47288  -0.14767
  0-1A  ->  8-1A    7.529313   60728.0   164.7   0.744759462   4.03741   1.55159  -0.28998   1.24334
  0-1A  ->  9-1A    7.681817   61958.0   161.4   0.272269770   1.44670  -0.47985  -0.16105   1.09110
  0-1A  -> 10-1A    7.778327   62736.4   159.4   0.921559602   4.83592  -1.55900  -0.63979   1.41284
  0-1A  -> 11-1A    8.035639   64811.8   154.3   0.171081739   0.86901  -0.81277  -0.26130  -0.37436
  0-1A  -> 12-1A    8.448973   68145.6   146.7   0.561768085   2.71391  -1.45139   0.68460  -0.37242

----------------------------------------------------------------------------------------------------
                     ABSORPTION SPECTRUM VIA TRANSITION VELOCITY DIPOLE MOMENTS    
----------------------------------------------------------------------------------------------------
     Transition      Energy     Energy  Wavelength fosc(P2)      P2        PX        PY        PZ   
                      (eV)      (cm-1)    (nm)                 (au**2)    (au)      (au)      (au)  
----------------------------------------------------------------------------------------------------
  0-1A  ->  1-1A    4.998540   40315.9   248.0   0.780455434   0.21505   0.46213   0.00118  -0.03849
  0-1A  ->  2-1A    5.437741   43858.3   228.0   0.000948146   0.00028   0.01553   0.00504  -0.00421
  0-1A  ->  3-1A    5.872481   47364.8   211.1   0.036039272   0.01167  -0.09558   0.04183  -0.02796
  0-1A  ->  4-1A    5.893618   47535.2   210.4   0.005694490   0.00185  -0.04070   0.01288  -0.00529
  0-1A  ->  5-1A    5.981467   48243.8   207.3   0.000207013   0.00007  -0.00506  -0.00336   0.00560
  0-1A  ->  6-1A    6.404648   51657.0   193.6   0.021395099   0.00755   0.08009  -0.01337   0.03100
  0-1A  ->  7-1A    7.354865   59321.0   168.6   0.132509707   0.05372   0.22536  -0.03879   0.03783
  0-1A  ->  8-1A    7.529313   60728.0   164.7   0.101919324   0.04230  -0.20550   0.00528   0.00652
  0-1A  ->  9-1A    7.681817   61958.0   161.4   0.006727859   0.00285  -0.01733   0.01656  -0.04769
  0-1A  -> 10-1A    7.778327   62736.4   159.4   0.268892225   0.11529   0.32283   0.05309  -0.09086
  0-1A  -> 11-1A    8.035639   64811.8   154.3   0.089590588   0.03968   0.16341   0.07446  -0.08625
  0-1A  -> 12-1A    8.448973   68145.6   146.7   0.200443817   0.09335   0.27966  -0.10995   0.05531

------------------------------------------------------------------------------------------
                     CD SPECTRUM VIA TRANSITION ELECTRIC DIPOLE MOMENTS    
------------------------------------------------------------------------------------------
     Transition      Energy     Energy  Wavelength    R        MX        MY        MZ   
                      (eV)      (cm-1)    (nm)   (1e40*cgs)   (au)      (au)      (au)  
------------------------------------------------------------------------------------------
  0-1A  ->  1-1A    4.998540   40315.9   248.0   46.21428   0.00572  -0.47903  -0.44485
  0-1A  ->  2-1A    5.437741   43858.3   228.0  -24.82279  -0.03402  -0.23312   0.22431
  0-1A  ->  3-1A    5.872481   47364.8   211.1    4.64669  -0.07014   0.00355   0.07442
  0-1A  ->  4-1A    5.893618   47535.2   210.4  -15.82436  -0.00133  -0.16120   0.00802
  0-1A  ->  5-1A    5.981467   48243.8   207.3    3.45922  -0.06316  -0.17867  -0.06026
  0-1A  ->  6-1A    6.404648   51657.0   193.6   -9.37107  -0.02327   0.13970   0.03615
  0-1A  ->  7-1A    7.354865   59321.0   168.6   67.60822   0.05255  -0.25183  -0.28196
  0-1A  ->  8-1A    7.529313   60728.0   164.7  -82.57065  -0.00855   0.27325   0.21526
  0-1A  ->  9-1A    7.681817   61958.0   161.4  -45.48509   0.02072   0.39940   0.15649
  0-1A  -> 10-1A    7.778327   62736.4   159.4  100.48516  -0.08005  -0.31978  -0.38400
  0-1A  -> 11-1A    8.035639   64811.8   154.3  -48.21377   0.07553  -0.34339  -0.19748
  0-1A  -> 12-1A    8.448973   68145.6   146.7   23.84029   0.10612  -0.04000  -0.35134

------------------------------------------------------------------------------------------
                     CD SPECTRUM VIA TRANSITION VELOCITY DIPOLE MOMENTS    
------------------------------------------------------------------------------------------
     Transition      Energy     Energy  Wavelength    R        MX        MY        MZ   
                      (eV)      (cm-1)    (nm)   (1e40*cgs)   (au)      (au)      (au)  
------------------------------------------------------------------------------------------
  0-1A  ->  1-1A    4.998540   40315.9   248.0   49.28125   0.00572  -0.47903  -0.44485
  0-1A  ->  2-1A    5.437741   43858.3   228.0   -6.24469  -0.03402  -0.23312   0.22431
  0-1A  ->  3-1A    5.872481   47364.8   211.1   10.42304  -0.07014   0.00355   0.07442
  0-1A  ->  4-1A    5.893618   47535.2   210.4   -4.49273  -0.00133  -0.16120   0.00802
  0-1A  ->  5-1A    5.981467   48243.8   207.3    1.24981  -0.06316  -0.17867  -0.06026
  0-1A  ->  6-1A    6.404648   51657.0   193.6   -5.22967  -0.02327   0.13970   0.03615
  0-1A  ->  7-1A    7.354865   59321.0   168.6   19.08932   0.05255  -0.25183  -0.28196
  0-1A  ->  8-1A    7.529313   60728.0   164.7    7.83906  -0.00855   0.27325   0.21526
  0-1A  ->  9-1A    7.681817   61958.0   161.4   -2.02044   0.02072   0.39940   0.15649
  0-1A  -> 10-1A    7.778327   62736.4   159.4  -13.07953  -0.08005  -0.31978  -0.38400
  0-1A  -> 11-1A    8.035639   64811.8   154.3    6.07626   0.07553  -0.34339  -0.19748
  0-1A  -> 12-1A    8.448973   68145.6   146.7   22.23557   0.10612  -0.04000  -0.35134

Total run time:     4441.590 sec

           *** ORCA-CIS/TD-DFT FINISHED WITHOUT ERROR ***
-----------------------
CIS/TD-DFT TOTAL ENERGY
-----------------------

    E(SCF)  =   -994.025786408 Eh
    DE(CIS) =      0.183692962 Eh (Root  1)
    ----------------------------- ---------
    E(tot)  =   -993.842093447 Eh


Maximum memory used throughout the entire CIS-calculation: 128.6 MB
=> NOW LEAVING ORCA_CIS

-------------------------   --------------------
FINAL SINGLE POINT ENERGY      -993.842093446821
-------------------------   --------------------



           ************************************************************
           *        Program running with 4 parallel MPI-processes     *
           *              working on a common directory               *
           ************************************************************

------------------------------------------------------------------------------
                              ORCA PROPERTY CALCULATIONS
------------------------------------------------------------------------------

GBWName                                 ... cis.gbw
Number of atoms                         ...     45
Number of basis functions               ...    432
Max core memory                         ...   2500 MB

Electric properties:
Dipole moment                           ... YES
Quadrupole moment                       ...  NO
Static polarizability (Dipole/Dipole)   ...  NO
Static polarizability (Dipole/Quad.)    ...  NO
Static polarizability (Quad./Quad.)     ...  NO
Static polarizability (Velocity)        ...  NO
Static hyperpolarizability              ...  NO

Atomic electric properties:
Dipole moment                           ...  NO
Quadrupole moment                       ...  NO
Static polarizability                   ...  NO

Choice of electric origin               ... Center of mass
Position of electric origin             ...     1.186671     0.362361    -0.436308

General magnetic properties:
Magnetizability                         ...  NO

EPR properties:
g-Tensor (aka g-matrix)                 ...  NO
Zero-Field splitting spin-orbit         ...  NO
Zero-field splitting spin-spin          ...  NO
Hyperfine couplings                     ...  NO (   0 nuclei)
Quadrupole couplings                    ...  NO (   0 nuclei)
Contact density                         ...  NO (   0 nuclei)

NMR properties:
Chemical shifts                         ...  NO (   0 nuclei)
Spin-rotation constants                 ...  NO (   0 nuclei)
Spin-spin couplings                     ...  NO (   0 nuclei,    0 pairs)

Choice of magnetic origin               ... GIAO
Position of magnetic origin             ...     0.000000     0.000000     0.000000

Properties with geometric perturbations:
SCF Hessian                             ...  NO
IR spectrum                             ...  NO
VCD spectrum                            ...  NO
X-ray spectroscopy properties:
SCF XES/XAS/RIXS spectra                ...  NO

SCF SOC stabilization energy            ...  NO
Diagonal Born-Oppenheimer correction    ...  NO

-------------
DIPOLE MOMENT
-------------

Method             : SCF
Type of density    : Electron Density
Multiplicity       :   1
Irrep              :   0
Energy             :  -994.0257864084135235 Eh
Basis              : AO
                                X                 Y                 Z
Electronic contribution:     25.995710474       7.911646788      -8.828175050
Nuclear contribution   :    -26.114003609      -8.922769987       9.626825540
                        -----------------------------------------
Total Dipole Moment    :     -0.118293136      -1.011123199       0.798650490
                        -----------------------------------------
Magnitude (a.u.)       :      1.293911123
Magnitude (Debye)      :      3.288860705



--------------------
Rotational spectrum 
--------------------
 
Rotational constants in cm-1:             0.022457             0.002653             0.002439 
Rotational constants in MHz :           673.255172            79.523278            73.128143 

Dipole components along the rotational axes: 
x,y,z [a.u.] :    -0.121262    -1.222748    -0.405448 
x,y,z [Debye]:    -0.308225    -3.107979    -1.030568 

 

Dipole moment calculation done in   0.1 sec 

Maximum memory used throughout the entire PROP-calculation: 20.5 MB

--------------------------------
SUGGESTED CITATIONS FOR THIS RUN
--------------------------------

Below you find a list of papers that are relevant to this ORCA run
We neither can nor want to force you to cite these papers, but we appreciate if you do
You receive ORCA, which is the product of decades of hard work by many enthusiastic individuals, for free
The only thing we kindly ask in return is that you cite our papers,
We deeply appreciate it, if you show your appreciation for ORCA by not just citing the generic ORCA reference.

Please note that relegating all ORCA citations to the supporting information does *not* help us.
SI sections are not indexed - citations you put there will not count into any citation statistics
But we need these citations in order to attract the funding resources that allow us to do what we are doing

Therefore, if you are a happy ORCA user, please consider citing a few of the papers listed below in the main body of your paper

In addition to the list printed below, the program has created the file cis.bibtex that contains the list in bibtex format
You can import this file easily into all common literature databanks and citation aid programs

It goes without saying that in many instances, there are alternative algorithms to achieve similar
results as the ones you have gotten from ORCA. It is, of course, also the case that in some instances
ORCA just re-implements algorithms worked out by others. We are fully aware of that and we are also
fully appreciative of our colleagues work. Hence this citation list should not be read as indicating
that the listed papers, which are focused on our own work, are the only ones worth citing. It simply
meant to make it easier for users to cite ORCA specific papers. It is not a substitute for doing your
own literature research and citing the relevant literature in a scientifically appropriate manner.

List of essential papers. We consider these as the minimum necessary citations

  1. Neese, F.
     Software update: the ORCA program system, version 6.0
     WIRES Comput. Molec. Sci. 2025 15(1), e70019
     doi.org/10.1002/wcms.70019

List of papers to cite with high priority. The work reported in these papers was absolutely
necessary for this run to complete.
Our perspective: the developers of density functionals and basis sets usually get cited in chemistry papers
Good! But without the algorithms to do something with them, the functionals or basis sets would not do anything.
Hence, in our opinion, the algorithm design and method developments papers are equally worthy of getting cited

  1. Neese, F.; Olbrich, G.
     Efficient use of the resolution of the identity approximation in time-dependent density functional calculations with hybrid density functionals
     Chem. Phys. Lett. 2002 362 , 170-178
     doi.org/10.1016/s0009-2614(02)01053-9
  2. Neese, F.
     The SHARK Integral Generation and Digestion System
     J. Comp. Chem. 2022 44(3), 381
     doi.org/10.1002/jcc.26942

List of suggested additional citations. These are papers that are important in the 'surrounding' of 
of this run, or papers that preceded the highly important papers. If you like your results we are grateful for a citation.

  1. Neese, F.
     The ORCA program system
     WIRES Comput. Molec. Sci. 2012 2(1), 73-78
     doi.org/10.1002/wcms.81
  2. Neese, F.
     Software update: the ORCA program system, version 4.0
     WIRES Comput. Molec. Sci. 2018 8(1), 1-6
     doi.org/10.1002/wcms.1327
  3. Neese, F.; Wennmohs, F.; Becker, U.; Riplinger, C.
     The ORCA quantum chemistry program package
     J. Chem. Phys. 2020 152(22), 224108
     doi.org/10.1063/5.0004608
  4. Neese, F.
     Software update: The ORCA program system—Version 5.0
     WIRES Comput. Molec. Sci. 2022 12(1), e1606
     doi.org/10.1002/wcms.1606

List of optional additional citations

  1. Neese, F.
     Approximate second-order SCF convergence for spin unrestricted wavefunctions
     Chem. Phys. Lett. 2000 325(1-3), 93-98
     doi.org/10.1016/s0009-2614(00)00662-x

Timings for individual modules:

Sum of individual times          ...     4673.934 sec (=  77.899 min)
Startup calculation              ...        3.401 sec (=   0.057 min)   0.1 %
SCF iterations                   ...      227.590 sec (=   3.793 min)   4.9 %
Property integrals               ...        0.613 sec (=   0.010 min)   0.0 %
Property calculations            ...        0.429 sec (=   0.007 min)   0.0 %
CIS module                       ...     4441.901 sec (=  74.032 min)  95.0 %
                             ****ORCA TERMINATED NORMALLY****
TOTAL RUN TIME: 0 days 1 hours 17 minutes 54 seconds 555 msec
