
                                 *****************
                                 * O   R   C   A *
                                 *****************

                                            #,                                       
                                            ###                                      
                                            ####                                     
                                            #####                                    
                                            ######                                   
                                           ########,                                 
                                     ,,################,,,,,                         
                               ,,#################################,,                 
                          ,,##########################################,,             
                       ,#########################################, ''#####,          
                    ,#############################################,,   '####,        
                  ,##################################################,,,,####,       
                ,###########''''           ''''###############################       
              ,#####''   ,,,,##########,,,,          '''####'''          '####       
            ,##' ,,,,###########################,,,                        '##       
           ' ,,###''''                  '''############,,,                           
         ,,##''                                '''############,,,,        ,,,,,,###''
      ,#''                                            '''#######################'''  
     '                                                          ''''####''''         
             ,#######,   #######,   ,#######,      ##                                
            ,#'     '#,  ##    ##  ,#'     '#,    #''#        ,####,    ,#,          
            ##       ##  ##   ,#'  ##            #'  '#       #'       ,# #          
            ##       ##  #######   ##           ,######,      #####,      #          
            '#,     ,#'  ##    ##  '#,     ,#' ,#      #,     #,   #      #          
             '#######'   ##     ##  '#######'  #'      '#     '####' #    #          



                #########################################################
                #                        -***-                          #
                #          Department of theory and spectroscopy        #
                #                                                       #
                #                      Frank Neese                      #
                #                                                       #
                #     Directorship, Architecture, Infrastructure        #
                #                    SHARK, DRIVERS                     #
                #        Core code/Algorithms in most modules           #
                #                                                       #
                #        Max Planck Institute fuer Kohlenforschung      #
                #                Kaiser Wilhelm Platz 1                 #
                #                 D-45470 Muelheim/Ruhr                 #
                #                      Germany                          #
                #                                                       #
                #                  All rights reserved                  #
                #                        -***-                          #
                #########################################################


                         Program Version 6.1.1  -  RELEASE   -


 With contributions from (in alphabetic order):
[Max-Planck-Institut fuer Kohlenforschung]                               
  Daniel Aravena         : Magnetic Suceptibility                        
  Michael Atanasov       : Ab Initio Ligand Field Theory (pilot matlab implementation)
  Alexander A. Auer      : GIAO ZORA, VPT2 properties, NMR spectrum      
  Ute Becker             : All parallelization in ORCA, NUMFREQ, NUMCALC 
  Giovanni Bistoni       : ED, misc. LED, open-shell LED, HFLD           
  Dmytro Bykov           : pre 5.0 version of the SCF Hessian            
  Marcos Casanova-Páez   : Triplet and SCS-CIS(D). UHF-(DLPNO)-IP/EA/STEOM-CCSD. UHF-CVS-IP/STEOM-CCSD   
  Vijay G. Chilkuri      : MRCI spin determinant printing, contributions to CSF-ICE 
  Pauline Colinet        : FMM embedding                                 
  Dipayan Datta          : RHF DLPNO-CCSD density                        
  Achintya Kumar Dutta   : EOM-CC, STEOM-CC                              
  Nicolas Foglia         : Exact transition moments, OPA infrastructure, MCD improvements    
  Dmitry Ganyushin       : Spin-Orbit,Spin-Spin,Magnetic field MRCI      
  Miquel Garcia-Rates    : C-PCM and meta-GGA Hessian, CCSD/C-PCM, Gaussian charge scheme 
  Tiago L. C. Gouveia    : GS-ROHF, GS-ROCIS                             
  Yang Guo               : DLPNO-NEVPT2, F12-NEVPT2, CIM, IAO-localization        
  Andreas Hansen         : Spin unrestricted coupled pair/coupled cluster methods 
  Ingolf Harden          : AUTO-CI MPn and infrastructure                
  Benjamin Helmich-Paris : MC-RPA, TRAH-(SCF,CASSCF), AVAS, COSX integrals, SCF dyn. polar., MC-PDFT, srDFT 
  Lee Huntington         : MR-EOM, pCC                                   
  Robert Izsak           : Overlap fitted RIJCOSX, COSX-SCS-MP3, EOM     
  Riya Kayal             : Wick's Theorem for AUTO-CI, AUTO-CI UHF-CCSDT 
  Emily Kempfer          : AUTO-CI RHF CISDT and CCSDT, approximate NEVPT4
  Christian Kollmar      : KDIIS, OOCD, Brueckner-CCSD(T), CCSD density, CASPT2, CASPT2-K, improved NEVPT2 
  Axel Koslowski         : Symmetry handling                             
  Simone Kossmann        : meta-GGA functionals, TD-DFT gradient, OOMP2, (MP2 Hessian; deprecated post 5.0) 
  Lucas Lang             : DCDCAS, Hyperfine gauge corrections, ICE-SOC+SSC
  Marvin Lechner         : AUTO-CI (C++ implementation), FIC-MRCC        
  Spencer Leger          : CASSCF response                               
  Dagmar Lenk            : GEPOL surface, SMD, ORCA-2-JSON               
  Dimitrios Liakos       : Extrapolation schemes; Compound Job, Property file
  Dimitrios Manganas     : Further ROCIS development; embedding schemes. LFT, Crystal Embedding 
  Dimitrios Pantazis     : SARC Basis sets                               
  Anastasios Papadopoulos: AUTO-CI, single reference methods and gradients 
  Taras Petrenko         : pre 6.0 DFT Hessian and TD-DFT gradient,  ECA, NRVS 
  Petra Pikulova         : Analytic Raman intensities                    
  Peter Pinski           : DLPNO-MP2, DLPNO-MP2 Gradient                 
  Shashank Vittal Rao    : ES-AILFT, MagRelax                            
  Christoph Reimann      : Effective Core Potentials                     
  Marius Retegan         : Local ZFS, SOC                                
  Christoph Riplinger    : Optimizer, TS searches, QM/MM, DLPNO-CCSD(T), (RO)-DLPNO pert. Triples 
  Michael Roemelt        : Original ROCIS implementation, recursive CI coupling coefficients
  Masaaki Saitow         : Open-shell DLPNO-CCSD energy and density      
  Barbara Sandhoefer     : DKH picture change effects                    
  Yorick L. A. Schmerwitz: GMF and freeze-and-release deltaSCF, NEB S-IDPP initial path                    
  Kantharuban Sivalingam : CASSCF convergence/infrastructure, NEVPT2, NEVPT3, NEVPT4(SD), FIC-MRCI and CEPA variants
  Bernardo de Souza      : ESD, SOC TD-DFT                               
  Georgi L. Stoychev     : AutoAux, RI-MP2 NMR, DLPNO-MP2 response, X2C  
  Van Anh Tran           : RI-MP2 g-tensors                              
  Willem Van den Heuvel  : Paramagnetic NMR                              
  Zikuan Wang            : NOTCH, Electric field optimization            
  Frank Wennmohs         : Technical directorship and infrastructure     
  Hang Xu                : AUTO-CI-Response properties                   
                                                                         
[FACCTs GmbH]                                                            
  Markus Bursch, Nicolas Foglia, Miquel Garcia-Rates, Ingolf Harden, Hagen Neugebauer, Anastasios Papadopoulos, 
  Christoph Riplinger, Bernardo de Souza, Georgi L. Stoychev                                                    
                                                                 
  APM, various basis sets, CI-OPT, improved COSX, DLPNO-Multilevel,           
  DOCKER, DRACO, updates on ESD, Fragmentator, GOAT, IRC, LR-CPCM, L-BFGS, MBIS, meta-GGA TD-DFT gradient, ML-optimized integration grids, 
  MM, NACMEs, nearIR, NEB, NEB-TS, NL-DFT gradient (VV10), 2- and 3-layer-ONIOM, interface openCOSMO-RS, QMMM,   
  Crystal-QMMM, RESP, rigid body optimization, SF, symmetry and pop. for TD-DFT, various functionals, SOLVATOR                                   
                                                                         
[Other institutions]                                                     
  V. Asgeirsson          : NEB                                           
  Christoph Bannwarth    : sTDA-DFT, sTD-DFT, PBEh-3c, B97-3c, D3        
  Giovanni Bistoni       : ETS/NOCV, ADLD/ADEX, COVALED                  
  Martin Brehm           : Molecular dynamics                            
  Ronald Cardenas        : ETS/NOCV                                      
  Martina Colucci        : COVALED                                       
  Sebastian Ehlert       : rSCAN, r2SCAN, r2SCAN-3c, D4, dhf basis sets  
  Marvin Friede          : D4 for Fr, Ra, Ac-Lr                          
  Lars Goerigk           : TD-DFT with DH, B97 family of functionals     
  Stefan Grimme          : VdW corrections, initial TS optimization, DFT functionals, gCP, sTDA/sTD-DF 
  Waldemar Hujo          : DFT-NL                                        
  H. Jonsson             : NEB                                           
  Holger Kruse           : gCP                                           
  Marcel Mueller         : wB97X-3c, vDZP basis set                      
  Hagen Neugebauer       : wr2SCAN, Native XTB                           
  Gianluca Regni         : ADLD/ADEX                                     
  Tobias Risthaus        : pre 6.0 range-separated hybrid DFT and stability analysis
  Lukas Wittmann         : regularized MP2, r2SCAN double-hybrids, wr2SCAN        
                                                                         
We gratefully acknowledge several colleagues who have allowed us to      
interface, adapt or use parts of their codes:                            
  Ed Valeev, F. Pavosevic, A. Kumar             : LibInt (2-el integral package), F12 methods 
  Garnet Chan, S. Sharma, J. Yang, R. Olivares  : DMRG                   
  Ulf Ekstrom                                   : XCFun DFT Library      
  Mihaly Kallay                                 : mrcc  (arbitrary order and MRCC methods)
  Frank Weinhold                                : gennbo (NPA and NBO analysis)           
  Simon Mueller                                 : openCOSMO-RS                            
  Christopher J. Cramer and Donald G. Truhlar   : smd solvation model                     
  S Lehtola, MJT Oliveira, MAL Marques          : LibXC Library                           
  Liviu Ungur et al                             : ANISO software                          


 Your calculation uses the libint2 library for the computation of 2-el integrals
 For citations please refer to: http://libint.valeyev.net

 Your ORCA version has been built with support for libXC version: 7.0.0
 For citations please refer to: https://libxc.gitlab.io

 This ORCA versions uses:
   CBLAS   interface :  Fast vector & matrix operations
   LAPACKE interface :  Fast linear algebra routines
   Shared memory     :  Shared parallel matrices


  ***********************************
  * Starting time: Tue Jul 21 13:47:44 2026
  * Host name:     DESKTOP-19Q153E
  * Process ID:    2232
  * Working dir.:  C:\Users\ysm04\Documents\etc\uv_vis\calculations\01_dft_opt\enolA\enolA_c000
  ***********************************

NOTE: MaxCore=2500 MB was set to SCF,MP2,MDCI,CIPSI,MRCI,RASCI and CIS
      => If you want to overwrite this, your respective input block should be placed after the MaxCore statement
================================================================================

----- Orbital basis set information -----
Your calculation utilizes the basis: def2-SVP
   F. Weigend and R. Ahlrichs, Phys. Chem. Chem. Phys. 7, 3297 (2005).

----- AuxJ basis set information -----
Your calculation utilizes the auxiliary basis: def2/J
   H-Rn: F. Weigend, Phys. Chem. Chem. Phys. 8, 1057 (2006).
   Fr-Lr: K. Eichkorn, F. Weigend, O. Treutler, R. Ahlrichs; Theor. Chem. Acc. 97, 119 (1997).

================================================================================
                                        WARNINGS
                       Please study these warnings very carefully!
================================================================================


WARNING: Geometry Optimization
  ===> : Switching off AutoStart
         For restart on a previous wavefunction, please use MOREAD

================================================================================
                                       INPUT FILE
================================================================================
NAME = opt.inp
|  1> # geometry optimization: enolA / enolA_c000
|  2> ! B3LYP def2-SVP RIJCOSX def2/J TightSCF Opt CPCM(Ethanol)
|  3> %pal nprocs 4 end
|  4> %maxcore 2500
|  5> %scf
|  6>   MaxIter 300
|  7> end
|  8> * xyz 0 1
|  9> C     -6.2773182737    -0.3604747582    -0.3671110791
| 10> C     -5.1842447465    -0.3919115618     0.7054595928
| 11> C     -5.5840380333     0.5758264074     1.8299401605
| 12> C     -5.0960922498    -1.8233797609     1.2566386753
| 13> C     -3.8234133617     0.0184140396     0.1675635676
| 14> C     -3.6176499370     0.4269760327    -1.1461210254
| 15> C     -2.3630075456     0.7921506674    -1.5951419215
| 16> C     -1.2567656860     0.7503611139    -0.7480101184
| 17> C     -1.4575056120     0.3551166005     0.5750677894
| 18> C     -2.7151104841     0.0019312817     1.0154255532
| 19> C      0.0619824791     1.1232403606    -1.2671039233
| 20> O      0.0472279260     1.8971776430    -2.3459344496
| 21> C      1.2340650694     0.6858812379    -0.7080492827
| 22> C      2.5075943350     1.0287049769    -1.2714691765
| 23> O      2.6103106720     1.7329417763    -2.2990944826
| 24> C      3.7263464513     0.4913799760    -0.6302380230
| 25> C      3.8068522591     0.1897684803     0.7311642478
| 26> C      4.9752674679    -0.2976603777     1.2695857540
| 27> C      6.0992757841    -0.5128381045     0.4645468071
| 28> O      7.1903888829    -1.0113502748     1.0957300764
| 29> C      8.3730490820    -1.2340782842     0.3529125057
| 30> C      6.0296455084    -0.2056163683    -0.8926836837
| 31> C      4.8584325169     0.3001348655    -1.4198620512
| 32> H     -7.2217630299    -0.6755788621     0.0714160677
| 33> H     -6.4105446743     0.6436623251    -0.7626319518
| 34> H     -6.0428715613    -1.0394493342    -1.1836743408
| 35> H     -4.8686824066     0.5507861766     2.6471584179
| 36> H     -6.5619495274     0.3063819852     2.2224723045
| 37> H     -5.6328181844     1.5943207691     1.4498518688
| 38> H     -4.3812094981    -1.8938348388     2.0713337975
| 39> H     -6.0682992422    -2.1382424675     1.6289441410
| 40> H     -4.7875004238    -2.5104597920     0.4712450213
| 41> H     -4.4378929797     0.4672207744    -1.8434023051
| 42> H     -2.2247634869     1.1042238817    -2.6194109650
| 43> H     -0.6316999899     0.3465997939     1.2690116240
| 44> H     -2.8317186624    -0.2911357537     2.0473666584
| 45> H      0.9985088126     2.0471100871    -2.6177956389
| 46> H      1.2057890929     0.0194964648     0.1332106066
| 47> H      2.9639000518     0.3672264474     1.3801796529
| 48> H      5.0519843722    -0.5231310593     2.3216873707
| 49> H      9.0967685683    -1.6137939225     1.0715872403
| 50> H      8.2143143624    -1.9771267374    -0.4336201767
| 51> H      8.7466198925    -0.3052363597    -0.0867791255
| 52> H      6.8780123915    -0.3522331868    -1.5415813820
| 53> H      4.8005236081     0.5487922396    -2.4697843886
| 54> *
| 55> 
| 56>                          ****END OF INPUT****
================================================================================

                       *****************************
                       * Geometry Optimization Run *
                       *****************************

Geometry optimization settings:
Update method            Update   .... BFGS
Choice of coordinates    CoordSys .... (2022) Redundant Internals
Initial Hessian          InHess   .... Almloef's Model
Max. no of cycles        MaxIter  .... 135

Convergence Tolerances:
Energy Change            TolE     ....  5.0000e-06 Eh
Max. Gradient            TolMAXG  ....  3.0000e-04 Eh/bohr
RMS Gradient             TolRMSG  ....  1.0000e-04 Eh/bohr
Max. Displacement        TolMAXD  ....  4.0000e-03 bohr
RMS Displacement         TolRMSD  ....  2.0000e-03 bohr
Strict Convergence                .... False

------------------------------------------------------------------------------
                        ORCA OPTIMIZATION COORDINATE SETUP
------------------------------------------------------------------------------

The optimization will be done in redundant internal coordinates (2022)
Making redundant internal coordinates   ...  (2022 redundants) done
Evaluating the initial hessian          ...  (Almloef) done
Evaluating the coordinates              ...  done
Calculating the B-matrix                .... done
Calculating the G-matrix                .... done
The number of degrees of freedom        ....  218

    -----------------------------------------------------------------
                    Redundant Internal Coordinates


    -----------------------------------------------------------------
         Definition                    Initial Value    Approx d2E/dq
    -----------------------------------------------------------------
      1. B(C   1,C   0)                  1.5317         0.371204   
      2. B(C   2,C   1)                  1.5365         0.364771   
      3. B(C   3,C   1)                  1.5364         0.364831   
      4. B(C   4,C   1)                  1.5197         0.387947   
      5. B(C   5,C   4)                  1.3911         0.622384   
      6. B(C   6,C   5)                  1.3817         0.644136   
      7. B(C   7,C   6)                  1.3940         0.615753   
      8. B(C   8,C   7)                  1.3954         0.612598   
      9. B(C   9,C   8)                  1.3785         0.651790   
     10. B(C   9,C   4)                  1.3955         0.612253   
     11. B(C  10,C   7)                  1.4655         0.473517   
     12. B(O  11,C  10)                  1.3278         0.703234   
     13. B(C  12,C  10)                  1.3703         0.671797   
     14. B(C  13,C  12)                  1.4342         0.531210   
     15. B(O  14,C  13)                  1.2500         0.935896   
     16. B(C  15,C  13)                  1.4783         0.451778   
     17. B(C  16,C  15)                  1.3967         0.609529   
     18. B(C  17,C  16)                  1.3757         0.658384   
     19. B(C  18,C  17)                  1.3992         0.604014   
     20. B(O  19,C  18)                  1.3555         0.635164   
     21. B(C  20,O  19)                  1.4142         0.511923   
     22. B(C  21,C  18)                  1.3933         0.617249   
     23. B(C  22,C  21)                  1.3804         0.647278   
     24. B(C  22,C  15)                  1.3934         0.616930   
     25. B(H  23,C   0)                  1.0879         0.362861   
     26. B(H  24,C   0)                  1.0874         0.363532   
     27. B(H  25,C   0)                  1.0875         0.363367   
     28. B(H  26,C   2)                  1.0864         0.364930   
     29. B(H  27,C   2)                  1.0877         0.363216   
     30. B(H  28,C   2)                  1.0882         0.362490   
     31. B(H  29,C   3)                  1.0862         0.365212   
     32. B(H  30,C   3)                  1.0876         0.363251   
     33. B(H  31,C   3)                  1.0882         0.362506   
     34. B(H  32,C   5)                  1.0773         0.377270   
     35. B(H  33,C   6)                  1.0796         0.374066   
     36. B(H  34,C   8)                  1.0787         0.375368   
     37. B(H  35,C   9)                  1.0791         0.374856   
     38. B(H  36,O  14)                  1.6728         0.037912   
     39. B(H  36,O  11)                  1.0007         0.447810   
     40. B(H  37,C  12)                  1.0736         0.382482   
     41. B(H  38,C  16)                  1.0786         0.375563   
     42. B(H  39,C  17)                  1.0787         0.375333   
     43. B(H  40,C  20)                  1.0883         0.362325   
     44. B(H  41,C  20)                  1.0936         0.355375   
     45. B(H  42,C  20)                  1.0934         0.355566   
     46. B(H  43,C  21)                  1.0781         0.376197   
     47. B(H  44,C  22)                  1.0805         0.372863   
     48. A(H  23,C   0,H  24)          107.9213         0.291623   
     49. A(H  24,C   0,H  25)          109.2579         0.291687   
     50. A(H  23,C   0,H  25)          107.9971         0.291602   
     51. A(C   1,C   0,H  24)          111.1662         0.324485   
     52. A(C   1,C   0,H  25)          111.0454         0.324461   
     53. A(C   1,C   0,H  23)          109.3481         0.324386   
     54. A(C   3,C   1,C   4)          109.0958         0.364226   
     55. A(C   2,C   1,C   4)          108.7822         0.364216   
     56. A(C   0,C   1,C   3)          108.1354         0.361492   
     57. A(C   0,C   1,C   4)          112.6824         0.365307   
     58. A(C   0,C   1,C   2)          108.2918         0.361482   
     59. A(C   2,C   1,C   3)          109.8275         0.360416   
     60. A(C   1,C   2,H  27)          110.0011         0.323509   
     61. A(H  26,C   2,H  27)          108.3516         0.291844   
     62. A(C   1,C   2,H  26)          111.3877         0.323759   
     63. A(H  27,C   2,H  28)          108.5186         0.291536   
     64. A(C   1,C   2,H  28)          110.2144         0.323403   
     65. A(H  26,C   2,H  28)          108.2905         0.291752   
     66. A(H  29,C   3,H  30)          108.2276         0.291884   
     67. A(C   1,C   3,H  31)          110.2192         0.323414   
     68. A(C   1,C   3,H  30)          109.9517         0.323523   
     69. A(C   1,C   3,H  29)          111.5475         0.323809   
     70. A(H  30,C   3,H  31)          108.5277         0.291543   
     71. A(H  29,C   3,H  31)          108.2856         0.291790   
     72. A(C   5,C   4,C   9)          117.3717         0.433384   
     73. A(C   1,C   4,C   9)          119.5327         0.398442   
     74. A(C   1,C   4,C   5)          123.0938         0.399594   
     75. A(C   6,C   5,H  32)          118.1089         0.358021   
     76. A(C   4,C   5,H  32)          120.6364         0.355938   
     77. A(C   4,C   5,C   6)          121.2547         0.437364   
     78. A(C   5,C   6,H  33)          120.0645         0.357502   
     79. A(C   7,C   6,H  33)          118.9203         0.354778   
     80. A(C   5,C   6,C   7)          121.0107         0.436521   
     81. A(C   6,C   7,C   8)          118.0702         0.432594   
     82. A(C   8,C   7,C  10)          122.5067         0.412763   
     83. A(C   6,C   7,C  10)          119.4227         0.413140   
     84. A(C   7,C   8,H  34)          120.1384         0.354678   
     85. A(C   7,C   8,C   9)          120.4456         0.437046   
     86. A(C   9,C   8,H  34)          119.3994         0.358433   
     87. A(C   4,C   9,H  35)          119.8949         0.354562   
     88. A(C   4,C   9,C   8)          121.8321         0.437002   
     89. A(C   8,C   9,H  35)          118.2729         0.358350   
     90. A(O  11,C  10,C  12)          121.8054         0.447578   
     91. A(C   7,C  10,C  12)          122.9567         0.419594   
     92. A(C   7,C  10,O  11)          115.2207         0.420285   
     93. A(C  10,O  11,H  36)          107.3080         0.368631   
     94. A(C  13,C  12,H  37)          118.6594         0.347338   
     95. A(C  10,C  12,H  37)          119.6890         0.361438   
     96. A(C  10,C  12,C  13)          121.5327         0.428310   
     97. A(O  14,C  13,C  15)          119.5801         0.438685   
     98. A(C  12,C  13,C  15)          118.3467         0.399167   
     99. A(C  12,C  13,O  14)          122.0463         0.451742   
    100. A(C  13,C  15,C  22)          118.2873         0.409849   
    101. A(C  13,C  15,C  16)          123.2856         0.408974   
    102. A(C  16,C  15,C  22)          118.4160         0.432352   
    103. A(C  15,C  16,C  17)          120.4593         0.437444   
    104. A(C  17,C  16,H  38)          119.1150         0.359079   
    105. A(C  15,C  16,H  38)          120.3942         0.354407   
    106. A(C  16,C  17,C  18)          120.7682         0.436728   
    107. A(C  18,C  17,H  39)          118.1564         0.353825   
    108. A(C  16,C  17,H  39)          121.0753         0.359042   
    109. A(O  19,C  18,C  21)          125.0926         0.432757   
    110. A(C  17,C  18,C  21)          119.1043         0.431687   
    111. A(C  17,C  18,O  19)          115.8026         0.431075   
    112. A(C  18,O  19,C  20)          119.1094         0.415793   
    113. A(H  41,C  20,H  42)          109.7278         0.289661   
    114. A(H  40,C  20,H  42)          109.5558         0.290542   
    115. A(O  19,C  20,H  42)          111.2924         0.338915   
    116. A(H  40,C  20,H  41)          109.5358         0.290518   
    117. A(O  19,C  20,H  41)          111.3085         0.338884   
    118. A(O  19,C  20,H  40)          105.3194         0.339982   
    119. A(C  22,C  21,H  43)          119.1851         0.358144   
    120. A(C  18,C  21,H  43)          121.1309         0.355266   
    121. A(C  18,C  21,C  22)          119.6836         0.437095   
    122. A(C  21,C  22,H  44)          120.0584         0.357603   
    123. A(C  15,C  22,H  44)          118.3917         0.354699   
    124. A(C  15,C  22,C  21)          121.5470         0.437054   
    125. D(C   3,C   1,C   0,H  23)     58.5549         0.011011   
    126. D(C   3,C   1,C   0,H  24)    177.6120         0.011011   
    127. D(C   2,C   1,C   0,H  23)    -60.4042         0.011011   
    128. D(C   2,C   1,C   0,H  25)   -179.4805         0.011011   
    129. D(C   2,C   1,C   0,H  24)     58.6530         0.011011   
    130. D(C   3,C   1,C   0,H  25)    -60.5215         0.011011   
    131. D(H  26,C   2,C   1,C   0)    176.7563         0.010656   
    132. D(H  26,C   2,C   1,C   4)    -60.4643         0.010656   
    133. D(H  27,C   2,C   1,C   4)    179.3772         0.010656   
    134. D(H  27,C   2,C   1,C   3)    -61.2857         0.010656   
    135. D(H  27,C   2,C   1,C   0)     56.5978         0.010656   
    136. D(H  26,C   2,C   1,C   3)     58.8727         0.010656   
    137. D(H  29,C   3,C   1,C   4)     60.9701         0.010659   
    138. D(H  29,C   3,C   1,C   0)   -176.1553         0.010659   
    139. D(H  29,C   3,C   1,C   2)    -58.1747         0.010659   
    140. D(H  30,C   3,C   1,C   4)   -178.9564         0.010659   
    141. D(H  30,C   3,C   1,C   2)     61.8988         0.010659   
    142. D(H  30,C   3,C   1,C   0)    -56.0818         0.010659   
    143. D(C   9,C   4,C   1,C   0)   -178.1053         0.011203   
    144. D(C   5,C   4,C   1,C   2)   -117.7122         0.011203   
    145. D(C   5,C   4,C   1,C   3)    122.4950         0.011203   
    146. D(C   9,C   4,C   1,C   2)     61.7998         0.011203   
    147. D(C   5,C   4,C   1,C   0)      2.3828         0.011203   
    148. D(H  32,C   5,C   4,C   9)   -179.5020         0.026817   
    149. D(H  32,C   5,C   4,C   1)      0.0198         0.026817   
    150. D(C   6,C   5,C   4,C   9)      0.4756         0.026817   
    151. D(C   6,C   5,C   4,C   1)    179.9974         0.026817   
    152. D(H  33,C   6,C   5,H  32)     -0.1527         0.028853   
    153. D(H  33,C   6,C   5,C   4)    179.8691         0.028853   
    154. D(C   7,C   6,C   5,H  32)   -179.3745         0.028853   
    155. D(C   7,C   6,C   5,C   4)      0.6473         0.028853   
    156. D(C  10,C   7,C   6,H  33)     -0.2800         0.026215   
    157. D(C  10,C   7,C   6,C   5)    178.9505         0.026215   
    158. D(C   8,C   7,C   6,H  33)    179.4789         0.026215   
    159. D(C   8,C   7,C   6,C   5)     -1.2905         0.026215   
    160. D(H  34,C   8,C   7,C  10)      2.0593         0.025931   
    161. D(H  34,C   8,C   7,C   6)   -177.6918         0.025931   
    162. D(C   9,C   8,C   7,C  10)   -179.4281         0.025931   
    163. D(C   9,C   8,C   7,C   6)      0.8209         0.025931   
    164. D(H  35,C   9,C   8,C   7)   -179.5550         0.029591   
    165. D(C   4,C   9,C   8,H  34)    178.8254         0.029591   
    166. D(C   4,C   9,C   8,C   7)      0.3018         0.029591   
    167. D(H  35,C   9,C   8,H  34)     -1.0314         0.029591   
    168. D(H  35,C   9,C   4,C   5)    178.9050         0.025900   
    169. D(H  35,C   9,C   4,C   1)     -0.6346         0.025900   
    170. D(C   8,C   9,C   4,C   5)     -0.9496         0.025900   
    171. D(C   8,C   9,C   4,C   1)    179.5108         0.025900   
    172. D(C  12,C  10,C   7,C   8)     23.9778         0.015267   
    173. D(C  12,C  10,C   7,C   6)   -156.2744         0.015267   
    174. D(O  11,C  10,C   7,C   8)   -157.5097         0.015267   
    175. D(O  11,C  10,C   7,C   6)     22.2381         0.015267   
    176. D(H  36,O  11,C  10,C  12)      0.7467         0.037067   
    177. D(H  36,O  11,C  10,C   7)   -177.7847         0.037067   
    178. D(H  37,C  12,C  10,O  11)   -176.7982         0.031576   
    179. D(H  37,C  12,C  10,C   7)      1.6184         0.031576   
    180. D(C  13,C  12,C  10,O  11)     -0.8158         0.031576   
    181. D(C  13,C  12,C  10,C   7)    177.6008         0.031576   
    182. D(C  15,C  13,C  12,H  37)     -2.5091         0.019264   
    183. D(C  15,C  13,C  12,C  10)   -178.5317         0.019264   
    184. D(O  14,C  13,C  12,H  37)    175.5960         0.019264   
    185. D(O  14,C  13,C  12,C  10)     -0.4266         0.019264   
    186. D(C  16,C  15,C  13,O  14)    152.9221         0.013911   
    187. D(C  16,C  15,C  13,C  12)    -28.9248         0.013911   
    188. D(C  22,C  15,C  13,O  14)    -25.8429         0.013911   
    189. D(C  22,C  15,C  13,C  12)    152.3102         0.013911   
    190. D(H  38,C  16,C  15,C  22)    177.2586         0.025657   
    191. D(H  38,C  16,C  15,C  13)     -1.5050         0.025657   
    192. D(C  17,C  16,C  15,C  22)     -0.6827         0.025657   
    193. D(C  17,C  16,C  15,C  13)   -179.4463         0.025657   
    194. D(H  39,C  17,C  16,H  38)      1.3192         0.030236   
    195. D(H  39,C  17,C  16,C  15)    179.2866         0.030236   
    196. D(C  18,C  17,C  16,H  38)   -178.5923         0.030236   
    197. D(C  18,C  17,C  16,C  15)     -0.6249         0.030236   
    198. D(C  21,C  18,C  17,H  39)   -178.8567         0.025169   
    199. D(C  21,C  18,C  17,C  16)      1.0573         0.025169   
    200. D(O  19,C  18,C  17,H  39)      0.9069         0.025169   
    201. D(O  19,C  18,C  17,C  16)   -179.1790         0.025169   
    202. D(C  20,O  19,C  18,C  21)      0.8277         0.029706   
    203. D(C  20,O  19,C  18,C  17)   -178.9199         0.029706   
    204. D(H  42,C  20,O  19,C  18)     60.4650         0.020752   
    205. D(H  41,C  20,O  19,C  18)    -62.2786         0.020752   
    206. D(H  40,C  20,O  19,C  18)    179.1009         0.020752   
    207. D(H  43,C  21,C  18,O  19)     -0.1534         0.026350   
    208. D(H  43,C  21,C  18,C  17)    179.5866         0.026350   
    209. D(C  22,C  21,C  18,O  19)   -179.9075         0.026350   
    210. D(C  22,C  21,C  18,C  17)     -0.1675         0.026350   
    211. D(H  44,C  22,C  21,H  43)     -0.3073         0.029154   
    212. D(H  44,C  22,C  21,C  18)    179.4516         0.029154   
    213. D(C  15,C  22,C  21,H  43)    179.0735         0.029154   
    214. D(C  15,C  22,C  21,C  18)     -1.1676         0.029154   
    215. D(H  44,C  22,C  15,C  16)   -179.0195         0.026321   
    216. D(H  44,C  22,C  15,C  13)     -0.1933         0.026321   
    217. D(C  21,C  22,C  15,C  16)      1.5897         0.026321   
    218. D(C  21,C  22,C  15,C  13)   -179.5841         0.026321   
    -----------------------------------------------------------------

Number of atoms                         .... 45
Number of degrees of freedom            .... 218


         *************************************************************
         *                GEOMETRY OPTIMIZATION CYCLE   1            *
         *************************************************************
---------------------------------
CARTESIAN COORDINATES (ANGSTROEM)
---------------------------------
  C     -6.277318   -0.360475   -0.367111
  C     -5.184245   -0.391912    0.705460
  C     -5.584038    0.575826    1.829940
  C     -5.096092   -1.823380    1.256639
  C     -3.823413    0.018414    0.167564
  C     -3.617650    0.426976   -1.146121
  C     -2.363008    0.792151   -1.595142
  C     -1.256766    0.750361   -0.748010
  C     -1.457506    0.355117    0.575068
  C     -2.715110    0.001931    1.015426
  C      0.061982    1.123240   -1.267104
  O      0.047228    1.897178   -2.345934
  C      1.234065    0.685881   -0.708049
  C      2.507594    1.028705   -1.271469
  O      2.610311    1.732942   -2.299094
  C      3.726346    0.491380   -0.630238
  C      3.806852    0.189768    0.731164
  C      4.975267   -0.297660    1.269586
  C      6.099276   -0.512838    0.464547
  O      7.190389   -1.011350    1.095730
  C      8.373049   -1.234078    0.352913
  C      6.029646   -0.205616   -0.892684
  C      4.858433    0.300135   -1.419862
  H     -7.221763   -0.675579    0.071416
  H     -6.410545    0.643662   -0.762632
  H     -6.042872   -1.039449   -1.183674
  H     -4.868682    0.550786    2.647158
  H     -6.561950    0.306382    2.222472
  H     -5.632818    1.594321    1.449852
  H     -4.381209   -1.893835    2.071334
  H     -6.068299   -2.138242    1.628944
  H     -4.787500   -2.510460    0.471245
  H     -4.437893    0.467221   -1.843402
  H     -2.224763    1.104224   -2.619411
  H     -0.631700    0.346600    1.269012
  H     -2.831719   -0.291136    2.047367
  H      0.998509    2.047110   -2.617796
  H      1.205789    0.019496    0.133211
  H      2.963900    0.367226    1.380180
  H      5.051984   -0.523131    2.321687
  H      9.096769   -1.613794    1.071587
  H      8.214314   -1.977127   -0.433620
  H      8.746620   -0.305236   -0.086779
  H      6.878012   -0.352233   -1.541581
  H      4.800524    0.548792   -2.469784

----------------------------
CARTESIAN COORDINATES (A.U.)
----------------------------
  NO LB      ZA    FRAG     MASS         X           Y           Z
   0 C     6.0000    0    12.011  -11.862412   -0.681199   -0.693739
   1 C     6.0000    0    12.011   -9.796803   -0.740606    1.333125
   2 C     6.0000    0    12.011  -10.552303    1.088154    3.458086
   3 C     6.0000    0    12.011   -9.630219   -3.445688    2.374703
   4 C     6.0000    0    12.011   -7.225204    0.034797    0.316649
   5 C     6.0000    0    12.011   -6.836368    0.806868   -2.165855
   6 C     6.0000    0    12.011   -4.465437    1.496948   -3.014381
   7 C     6.0000    0    12.011   -2.374943    1.417977   -1.413534
   8 C     6.0000    0    12.011   -2.754286    0.671073    1.086721
   9 C     6.0000    0    12.011   -5.130815    0.003650    1.918876
  10 C     6.0000    0    12.011    0.117130    2.122617   -2.394479
  11 O     8.0000    0    15.999    0.089248    3.585146   -4.433174
  12 C     6.0000    0    12.011    2.332045    1.296128   -1.338019
  13 C     6.0000    0    12.011    4.738667    1.943971   -2.402729
  14 O     8.0000    0    15.999    4.932772    3.274785   -4.344659
  15 C     6.0000    0    12.011    7.041774    0.928574   -1.190977
  16 C     6.0000    0    12.011    7.193908    0.358610    1.381700
  17 C     6.0000    0    12.011    9.401893   -0.562497    2.399169
  18 C     6.0000    0    12.011   11.525961   -0.969124    0.877866
  19 O     8.0000    0    15.999   13.587866   -1.911175    2.070630
  20 C     6.0000    0    12.011   15.822770   -2.332070    0.666908
  21 C     6.0000    0    12.011   11.394379   -0.388559   -1.686928
  22 C     6.0000    0    12.011    9.181107    0.567173   -2.683150
  23 H     1.0000    0     1.008  -13.647154   -1.276659    0.134957
  24 H     1.0000    0     1.008  -12.114174    1.216346   -1.441166
  25 H     1.0000    0     1.008  -11.419372   -1.964275   -2.236820
  26 H     1.0000    0     1.008   -9.200476    1.040835    5.002404
  27 H     1.0000    0     1.008  -12.400288    0.578978    4.199864
  28 H     1.0000    0     1.008  -10.644484    3.012830    2.739823
  29 H     1.0000    0     1.008   -8.279286   -3.578829    3.914254
  30 H     1.0000    0     1.008  -11.467424   -4.040693    3.078258
  31 H     1.0000    0     1.008   -9.047065   -4.744081    0.890524
  32 H     1.0000    0     1.008   -8.386402    0.882919   -3.483526
  33 H     1.0000    0     1.008   -4.204194    2.086681   -4.949969
  34 H     1.0000    0     1.008   -1.193740    0.654979    2.398084
  35 H     1.0000    0     1.008   -5.351173   -0.550167    3.868962
  36 H     1.0000    0     1.008    1.886908    3.868477   -4.946917
  37 H     1.0000    0     1.008    2.278611    0.036843    0.251732
  38 H     1.0000    0     1.008    5.600959    0.693957    2.608162
  39 H     1.0000    0     1.008    9.546867   -0.988574    4.387353
  40 H     1.0000    0     1.008   17.190401   -3.049629    2.025006
  41 H     1.0000    0     1.008   15.522805   -3.736228   -0.819423
  42 H     1.0000    0     1.008   16.528716   -0.576813   -0.163989
  43 H     1.0000    0     1.008   12.997560   -0.665624   -2.913167
  44 H     1.0000    0     1.008    9.071675    1.037067   -4.667216

--------------------------------
INTERNAL COORDINATES (ANGSTROEM)
--------------------------------
 C      0   0   0     0.000000000000     0.00000000     0.00000000
 C      1   0   0     1.531732958027     0.00000000     0.00000000
 C      2   1   0     1.536492107476   108.29176835     0.00000000
 C      2   1   3     1.536447346542   108.13540487   118.95906340
 C      2   1   3     1.519724083821   112.68243015   239.62288745
 C      5   2   1     1.391053089941   123.09384431     2.38280669
 C      6   5   2     1.381701780147   121.25470650   179.99743604
 C      7   6   5     1.393969049347   121.01071503     0.64734873
 C      8   7   6     1.395367296941   118.07018123   358.70946882
 C      9   8   7     1.378486432245   120.44560922     0.82086973
 C      8   7   6     1.465467172563   119.42270253   178.95051405
 O     11   8   7     1.327807184196   115.22069469    22.23812358
 C     11   8   7     1.370256432888   122.95669426   203.72556705
 C     13  11   8     1.434171148466   121.53272914   177.60075055
 O     14  13  11     1.250005554089   122.04629198   359.57343179
 C     14  13  11     1.478259878978   118.34674206   181.46834300
 C     16  14  13     1.396734342088   123.28559876   331.07522664
 C     17  16  14     1.375746600979   120.45934644   180.55372928
 C     18  17  16     1.399208295796   120.76819290   359.37508638
 O     19  18  17     1.355520010090   115.80263819   180.82098717
 C     20  19  18     1.414238613547   119.10943204   181.08010302
 C     19  18  17     1.393308356268   119.10425100     1.05732515
 C     22  19  18     1.380377199576   119.68357256   359.83248813
 H      1   2   3     1.087921206838   109.34807960   299.59583907
 H      1   2   3     1.087417728666   111.16617692    58.65297149
 H      1   2   3     1.087541859501   111.04538483   180.51945684
 H      3   2   1     1.086373032636   111.38767412   176.75627859
 H      3   2   1     1.087654665333   110.00112582    56.59783264
 H      3   2   1     1.088199144203   110.21438371   296.98009706
 H      4   2   1     1.086162699054   111.54749545   183.84468035
 H      4   2   1     1.087628760133   109.95169725   303.91824425
 H      4   2   1     1.088187059266   110.21917875    63.51900977
 H      6   5   2     1.077320505399   120.63641037     0.00000000
 H      7   6   5     1.079642618797   120.06451615   179.86912914
 H      9   8   7     1.078696207032   120.13842677   182.30823449
 H     10   9   8     1.079068208727   118.27288509   180.44498305
 H     12  11   8     1.000661565791   107.30799518   182.21531758
 H     13  11   8     1.073585766491   119.68900273     1.61839493
 H     17  16  14     1.078554935984   120.39418756   358.49503863
 H     18  17  16     1.078721615399   121.07530405   179.28660155
 H     21  20  19     1.088323129853   105.31943217   179.10089323
 H     21  20  19     1.093595617901   111.30845133   297.72140148
 H     21  20  19     1.093449222284   111.29235959    60.46499951
 H     22  19  18     1.078096045196   121.13086140   179.58660348
 H     23  22  19     1.080518785577   120.05843696   179.45157355

---------------------------
INTERNAL COORDINATES (A.U.)
---------------------------
 C      0   0   0     0.000000000000     0.00000000     0.00000000
 C      1   0   0     2.894555800972     0.00000000     0.00000000
 C      2   1   0     2.903549290061   108.29176835     0.00000000
 C      2   1   3     2.903464704154   108.13540487   118.95906340
 C      2   1   3     2.871862317547   112.68243015   239.62288745
 C      5   2   1     2.628709377734   123.09384431     2.38280669
 C      6   5   2     2.611037963229   121.25470650   179.99743604
 C      7   6   5     2.634219742428   121.01071503     0.64734873
 C      8   7   6     2.636862047448   118.07018123   358.70946882
 C      9   8   7     2.604961836270   120.44560922     0.82086973
 C      8   7   6     2.769331614396   119.42270253   178.95051405
 O     11   8   7     2.509191936784   115.22069469    22.23812358
 C     11   8   7     2.589409391401   122.95669426   203.72556705
 C     13  11   8     2.710190699771   121.53272914   177.60075055
 O     14  13  11     2.362168163108   122.04629198   359.57343179
 C     14  13  11     2.793506326033   118.34674206   181.46834300
 C     16  14  13     2.639445388389   123.28559876   331.07522664
 C     17  16  14     2.599784305523   120.45934644   180.55372928
 C     18  17  16     2.644120483365   120.76819290   359.37508638
 O     19  18  17     2.561561588120   115.80263819   180.82098717
 C     20  19  18     2.672523667620   119.10943204   181.08010302
 C     19  18  17     2.632971213450   119.10425100     1.05732515
 C     22  19  18     2.608534868707   119.68357256   359.83248813
 H      1   2   3     2.055873136210   109.34807960   299.59583907
 H      1   2   3     2.054921700349   111.16617692    58.65297149
 H      1   2   3     2.055156273633   111.04538483   180.51945684
 H      3   2   1     2.052947510959   111.38767412   176.75627859
 H      3   2   1     2.055369445761   110.00112582    56.59783264
 H      3   2   1     2.056398361711   110.21438371   296.98009706
 H      4   2   1     2.052550038093   111.54749545   183.84468035
 H      4   2   1     2.055320492028   109.95169725   303.91824425
 H      4   2   1     2.056375524490   110.21917875    63.51900977
 H      6   5   2     2.035840713661   120.63641037     0.00000000
 H      7   6   5     2.040228872035   120.06451615   179.86912914
 H      9   8   7     2.038440412991   120.13842677   182.30823449
 H     10   9   8     2.039143394316   118.27288509   180.44498305
 H     12  11   8     1.890976312086   107.30799518   182.21531758
 H     13  11   8     2.028783079944   119.68900273     1.61839493
 H     17  16  14     2.038173449399   120.39418756   358.49503863
 H     18  17  16     2.038488427845   121.07530405   179.28660155
 H     21  20  19     2.056632660634   105.31943217   179.10089323
 H     21  20  19     2.066596219090   111.30845133   297.72140148
 H     21  20  19     2.066319571466   111.29235959    60.46499951
 H     22  19  18     2.037306271484   121.13086140   179.58660348
 H     23  22  19     2.041884587297   120.05843696   179.45157355

---------------------
BASIS SET INFORMATION
---------------------
There are 3 groups of distinct atoms

 Group   1 Type C   : 7s4p1d contracted to 3s2p1d pattern {511/31/1}
 Group   2 Type O   : 7s4p1d contracted to 3s2p1d pattern {511/31/1}
 Group   3 Type H   : 4s1p contracted to 2s1p pattern {31/1}

Atom   0C    basis set group =>   1
Atom   1C    basis set group =>   1
Atom   2C    basis set group =>   1
Atom   3C    basis set group =>   1
Atom   4C    basis set group =>   1
Atom   5C    basis set group =>   1
Atom   6C    basis set group =>   1
Atom   7C    basis set group =>   1
Atom   8C    basis set group =>   1
Atom   9C    basis set group =>   1
Atom  10C    basis set group =>   1
Atom  11O    basis set group =>   2
Atom  12C    basis set group =>   1
Atom  13C    basis set group =>   1
Atom  14O    basis set group =>   2
Atom  15C    basis set group =>   1
Atom  16C    basis set group =>   1
Atom  17C    basis set group =>   1
Atom  18C    basis set group =>   1
Atom  19O    basis set group =>   2
Atom  20C    basis set group =>   1
Atom  21C    basis set group =>   1
Atom  22C    basis set group =>   1
Atom  23H    basis set group =>   3
Atom  24H    basis set group =>   3
Atom  25H    basis set group =>   3
Atom  26H    basis set group =>   3
Atom  27H    basis set group =>   3
Atom  28H    basis set group =>   3
Atom  29H    basis set group =>   3
Atom  30H    basis set group =>   3
Atom  31H    basis set group =>   3
Atom  32H    basis set group =>   3
Atom  33H    basis set group =>   3
Atom  34H    basis set group =>   3
Atom  35H    basis set group =>   3
Atom  36H    basis set group =>   3
Atom  37H    basis set group =>   3
Atom  38H    basis set group =>   3
Atom  39H    basis set group =>   3
Atom  40H    basis set group =>   3
Atom  41H    basis set group =>   3
Atom  42H    basis set group =>   3
Atom  43H    basis set group =>   3
Atom  44H    basis set group =>   3
---------------------------------
AUXILIARY/J BASIS SET INFORMATION
---------------------------------
There are 3 groups of distinct atoms

 Group   1 Type C   : 12s5p4d2f1g contracted to 6s4p3d1f1g pattern {711111/2111/211/2/1}
 Group   2 Type O   : 12s5p4d2f1g contracted to 6s4p3d1f1g pattern {711111/2111/211/2/1}
 Group   3 Type H   : 5s2p1d contracted to 3s1p1d pattern {311/2/1}

Atom   0C    basis set group =>   1
Atom   1C    basis set group =>   1
Atom   2C    basis set group =>   1
Atom   3C    basis set group =>   1
Atom   4C    basis set group =>   1
Atom   5C    basis set group =>   1
Atom   6C    basis set group =>   1
Atom   7C    basis set group =>   1
Atom   8C    basis set group =>   1
Atom   9C    basis set group =>   1
Atom  10C    basis set group =>   1
Atom  11O    basis set group =>   2
Atom  12C    basis set group =>   1
Atom  13C    basis set group =>   1
Atom  14O    basis set group =>   2
Atom  15C    basis set group =>   1
Atom  16C    basis set group =>   1
Atom  17C    basis set group =>   1
Atom  18C    basis set group =>   1
Atom  19O    basis set group =>   2
Atom  20C    basis set group =>   1
Atom  21C    basis set group =>   1
Atom  22C    basis set group =>   1
Atom  23H    basis set group =>   3
Atom  24H    basis set group =>   3
Atom  25H    basis set group =>   3
Atom  26H    basis set group =>   3
Atom  27H    basis set group =>   3
Atom  28H    basis set group =>   3
Atom  29H    basis set group =>   3
Atom  30H    basis set group =>   3
Atom  31H    basis set group =>   3
Atom  32H    basis set group =>   3
Atom  33H    basis set group =>   3
Atom  34H    basis set group =>   3
Atom  35H    basis set group =>   3
Atom  36H    basis set group =>   3
Atom  37H    basis set group =>   3
Atom  38H    basis set group =>   3
Atom  39H    basis set group =>   3
Atom  40H    basis set group =>   3
Atom  41H    basis set group =>   3
Atom  42H    basis set group =>   3
Atom  43H    basis set group =>   3
Atom  44H    basis set group =>   3


           ************************************************************
           *        Program running with 4 parallel MPI-processes     *
           *              working on a common directory               *
           ************************************************************
------------------------------------------------------------------------------
                             ORCA STARTUP CALCULATIONS
                           -- RI-GTO INTEGRALS CHOSEN --
------------------------------------------------------------------------------
------------------------------------------------------------------------------
                   ___                                                        
                  /   \      - P O W E R E D   B Y -                         
                 /     \                                                     
                 |  |  |   _    _      __       _____    __    __             
                 |  |  |  | |  | |    /  \     |  _  \  |  |  /  |          
                  \  \/   | |  | |   /    \    | | | |  |  | /  /          
                 / \  \   | |__| |  /  /\  \   | |_| |  |  |/  /          
                |  |  |   |  __  | /  /__\  \  |    /   |      \           
                |  |  |   | |  | | |   __   |  |    \   |  |\   \          
                \     /   | |  | | |  |  |  |  | |\  \  |  | \   \       
                 \___/    |_|  |_| |__|  |__|  |_| \__\ |__|  \__/        
                                                                              
                      - O R C A' S   B I G   F R I E N D -                    
                                      &                                       
                       - I N T E G R A L  F E E D E R -                       
                                                                              
 v1 FN, 2020, v2 2021, v3 2022-2024                                           
------------------------------------------------------------------------------


----------------------
SHARK INTEGRAL PACKAGE
----------------------

Number of atoms                             ...     45
Number of basis functions                   ...    432
Number of shells                            ...    204
Maximum angular momentum                    ...      2
Integral batch strategy                     ... SHARK/LIBINT Hybrid
RI-J (if used) integral strategy            ... SPLIT-RIJ (Revised 2003 algorithm where possible)
Printlevel                                  ...      1
Contraction scheme used                     ... SEGMENTED contraction
Prescreening option                         ... SCHWARTZ
   Thresh                                   ... 2.500e-11
   Tcut                                     ... 2.500e-12
   Tpresel                                  ... 2.500e-12 
Coulomb Range Separation                    ... NOT USED
Exchange Range Separation                   ... NOT USED
Multipole approximations                    ... NOT USED
Finite Nucleus Model                        ... NOT USED
CABS basis                                  ... NOT available
Auxiliary Coulomb fitting basis             ... AVAILABLE
   # of basis functions in Aux-J            ...   1369
   # of shells in Aux-J                     ...    455
   Maximum angular momentum in Aux-J        ...      4
Auxiliary J/K fitting basis                 ... NOT available
Auxiliary Correlation fitting basis         ... NOT available
Auxiliary 'external' fitting basis          ... NOT available

Checking pre-screening integrals            ... done (  0.0 sec) Dimension = 204
   => SHARK Basis and OBASIS are compatible. Storing Pre-screening
Shell pair information
Shell pair cut-off parameter TPreSel        ...   2.5e-12
Total number of shell pairs                 ...     20910
Shell pairs after pre-screening             ...     12337
Total number of primitive shell pairs       ...     75056
Primitive shell pairs kept                  ...     29057
          la=0 lb=0:   3899 shell pairs
          la=1 lb=0:   4614 shell pairs
          la=1 lb=1:   1414 shell pairs
          la=2 lb=0:   1421 shell pairs
          la=2 lb=1:    854 shell pairs
          la=2 lb=2:    135 shell pairs

Checking whether 4 symmetric matrices of dimension 432 fit in memory
:Max Core in MB      =   2500.00
 MB in use           =     15.53
 MB left             =   2484.47
 MB needed           =      2.85
 Data fit in memory  = YES
Calculating RI/J V-Matrix + Cholesky decomp.... done (  0.1 sec)
Calculating Nuclear repulsion               ... done (  0.0 sec) ENN=   1743.121930344424 Eh

Diagonalization of the overlap matrix:
Smallest eigenvalue                        ... 2.439e-04
Time for diagonalization                   ...    0.029 sec
Threshold for overlap eigenvalues          ... 1.000e-07
Number of eigenvalues below threshold      ... 0
Time for construction of square roots      ...    0.016 sec
Total time needed                          ...    0.048 sec

-------------------
DFT GRID GENERATION
-------------------

General Integration Accuracy     IntAcc      ... 4.388
Radial Grid Type                 RadialGrid  ... OptM3 with GC (2021)
Angular Grid (max. ang.)         AngularGrid ... 4 (Lebedev-302)
Angular grid pruning method      GridPruning ... 4 (adaptive)
Weight generation scheme         WeightScheme... mBecke (2022)
Basis function cutoff            BFCut       ... 1.0000e-11
Integration weight cutoff        WCut        ... 1.0000e-14
Partially contracted basis set               ... off
Rotationally invariant grid construction     ... off
Angular grids for H and He will be reduced by one unit

Total number of grid points                  ...   207581
Total number of batches                      ...     3262
Average number of points per batch           ...       63
Average number of grid points per atom       ...     4613

--------------------
COSX GRID GENERATION
--------------------

GRIDX 1
-------
General Integration Accuracy     IntAcc      ... 3.816
Radial Grid Type                 RadialGrid  ... OptM3 with GC (2021)
Angular Grid (max. ang.)         AngularGrid ... 1 (Lebedev-50)
Angular grid pruning method      GridPruning ... 4 (adaptive)
Weight generation scheme         WeightScheme... mBecke (2022)
Basis function cutoff            BFCut       ... 1.0000e-11
Integration weight cutoff        WCut        ... 1.0000e-14
Partially contracted basis set               ... on
Rotationally invariant grid construction     ... off
Angular grids for H and He will be reduced by one unit

Total number of grid points                  ...    26369
Total number of batches                      ...      229
Average number of points per batch           ...      115
Average number of grid points per atom       ...      586
UseSFitting                                  ... on

GRIDX 2
-------
General Integration Accuracy     IntAcc      ... 4.020
Radial Grid Type                 RadialGrid  ... OptM3 with GC (2021)
Angular Grid (max. ang.)         AngularGrid ... 2 (Lebedev-110)
Angular grid pruning method      GridPruning ... 4 (adaptive)
Weight generation scheme         WeightScheme... mBecke (2022)
Basis function cutoff            BFCut       ... 1.0000e-11
Integration weight cutoff        WCut        ... 1.0000e-14
Partially contracted basis set               ... on
Rotationally invariant grid construction     ... off
Angular grids for H and He will be reduced by one unit

Total number of grid points                  ...    56696
Total number of batches                      ...      467
Average number of points per batch           ...      121
Average number of grid points per atom       ...     1260
UseSFitting                                  ... on

GRIDX 3
-------
General Integration Accuracy     IntAcc      ... 4.338
Radial Grid Type                 RadialGrid  ... OptM3 with GC (2021)
Angular Grid (max. ang.)         AngularGrid ... 3 (Lebedev-194)
Angular grid pruning method      GridPruning ... 4 (adaptive)
Weight generation scheme         WeightScheme... mBecke (2022)
Basis function cutoff            BFCut       ... 1.0000e-11
Integration weight cutoff        WCut        ... 1.0000e-14
Partially contracted basis set               ... on
Rotationally invariant grid construction     ... off
Angular grids for H and He will be reduced by one unit

Total number of grid points                  ...   123942
Total number of batches                      ...      994
Average number of points per batch           ...      124
Average number of grid points per atom       ...     2754
UseSFitting                                  ... on
Grids setup in   4.1 sec
Initializing property integral containers    ... done (  0.1 sec)

SHARK setup successfully completed in   4.6 seconds

Maximum memory used throughout the entire STARTUP-calculation: 57.9 MB


           ************************************************************
           *        Program running with 4 parallel MPI-processes     *
           *              working on a common directory               *
           ************************************************************
-------------------------------------------------------------------------------
                                 ORCA GUESS
                   Start orbitals & Density for SCF / CASSCF
-------------------------------------------------------------------------------

------------
SCF SETTINGS
------------
Hamiltonian:
 Density Functional     Method          .... DFT(GTOs)
 Exchange Functional    Exchange        .... B88
   X-Alpha parameter    XAlpha          ....  0.666667
   Becke's b parameter  XBeta           ....  0.004200
 Correlation Functional Correlation     .... LYP
 LDA part of GGA corr.  LDAOpt          .... VWN-5
 Gradients option       PostSCFGGA      .... off
 Hybrid DFT is turned on
   Fraction HF Exchange ScalHFX         ....  0.200000
   Scaling of DF-GGA-X  ScalDFX         ....  0.720000
   Scaling of DF-GGA-C  ScalDFC         ....  0.810000
   Scaling of DF-LDA-C  ScalLDAC        ....  1.000000
   Perturbative correction              ....  0.000000
   NL short-range parameter             ....  4.800000
 RI-approximation to the Coulomb term is turned on
   Number of AuxJ basis functions       .... 1369
   RIJ-COSX (HFX calculated with COS-X)).... on


General Settings:
 Integral files         IntName         .... opt
 Hartree-Fock type      HFTyp           .... RHF
 Total Charge           Charge          ....    0
 Multiplicity           Mult            ....    1
 Number of Electrons    NEL             ....  166
 Basis Dimension        Dim             ....  432
 Nuclear Repulsion      ENuc            ....   1743.1219303444 Eh

Convergence Acceleration:
 AO-DIIS                CNVDIIS         .... on
   Start iteration      DIISMaxIt       ....    12
   Startup error        DIISStart       ....  0.200000
   # of expansion vecs  DIISMaxEq       ....     5
   Bias factor          DIISBfac        ....   1.050
   Max. coefficient     DIISMaxC        ....  10.000
 MO-DIIS                CNVKDIIS        .... off
 Trust-Rad. Augm. Hess. CNVTRAH         .... auto
   Auto Start mean grad. ratio tolernc. ....  1.125000
   Auto Start start iteration           ....    50
   Auto Start num. interpolation iter.  ....    10
   Max. Number of Micro iterations      ....    24
   Max. Number of Macro iterations      .... Maxiter - #DIIS iter
   Number of Davidson start vectors     ....     2
   Converg. threshold    (grad. norm)   ....   1.000e-05
   Grad. Scal. Fac. for Micro threshold ....   0.100
   Minimum threshold for Micro iter.    ....   1.000e-02
   NR start threshold (gradient norm)   ....   1.000e-04
   Initial trust radius                 ....   0.400
   Minimum AH scaling param. (alpha)    ....   1.000
   Maximum AH scaling param. (alpha)    .... 1000.000
   Quad. conv. algorithm                .... NR
   White noise on init. David. guess    .... on
   Maximum white noise                  ....   0.010
   Pseudo random numbers                .... off
   Inactive MOs                         .... canonical
   Orbital update algorithm             .... Taylor
   Preconditioner                       .... Diag
   Full preconditioner red. dimension   ....   250
 SOSCF                 CNVSOSCF           .... on
   Start iteration     SOSCFMaxIt         ....   150
   Startup grad/error  SOSCFStart         ....  0.003300
   Hessian update      SOSCFHessUp        .... L-BFGS
   Autom. constraints  SOSCFAutoConstrain .... off
 Level Shifting         CNVShift        .... on
   Level shift para.    LevelShift      ....    0.2500
   Turn off err/grad.   ShiftErr        ....    0.0010
 Zerner damping         CNVZerner       .... off
 Static damping         CNVDamp         .... on
   Fraction old density DampFac         ....    0.7000
   Max. Damping (<1)    DampMax         ....    0.9800
   Min. Damping (>=0)   DampMin         ....    0.0000
   Turn off err/grad.   DampErr         ....    0.1000

SCF Procedure:
 Maximum # iterations   MaxIter         ....   300
 SCF integral mode      SCFMode         .... Direct
   Integral package                     .... SHARK and LIBINT hybrid scheme
 Reset frequency        DirectResetFreq ....    20
 Integral Threshold     Thresh          ....  2.500e-11 Eh
 Primitive CutOff       TCut            ....  2.500e-12 Eh

Convergence Tolerance:
 Convergence Check Mode ConvCheckMode   .... Total+1el-Energy
 Convergence forced     ConvForced      .... 0
 Energy Change          TolE            ....  1.000e-08 Eh
 1-El. energy change                    ....  1.000e-05 Eh
 Orbital Gradient       TolG            ....  1.000e-05
 Orbital Rotation angle TolX            ....  1.000e-05
 DIIS Error             TolErr          ....  5.000e-07

------------------------------
INITIAL GUESS: MODEL POTENTIAL
------------------------------
Loading Hartree-Fock densities                     ... done
Calculating cut-offs                               ... done
Initializing the effective Hamiltonian             ... done
Setting up the integral package (SHARK)            ... done
Starting the Coulomb interaction                   ... done (   0.5 sec)
Making the grid                                    ... done (   0.5 sec)
Mapping shells                                     ... done
Starting the XC term evaluation                    ... done (   0.4 sec)
  promolecular density results
     # of electrons  =    165.988190513
     EX              =   -134.072768319
     EC              =     -5.606954575
     EX+EC           =   -139.679722894
Transforming the Hamiltonian                       ... done (   0.0 sec)
Diagonalizing the Hamiltonian                      ... done (   0.0 sec)
Back transforming the eigenvectors                 ... done (   0.0 sec)
Now organizing SCF variables                       ... done
                      ------------------
                      INITIAL GUESS DONE (   1.6 sec)
                      ------------------
             **** ENERGY FILE WAS UPDATED (opt.en.tmp) ****
Finished Guess after   1.8 sec
Maximum memory used throughout the entire GUESS-calculation: 21.8 MB


           ************************************************************
           *        Program running with 4 parallel MPI-processes     *
           *              working on a common directory               *
           ************************************************************

-------------------------------------------------------------------------------------------
                                      ORCA LEAN-SCF
                              memory conserving SCF solver
-------------------------------------------------------------------------------------------

--------------------
CPCM SOLVATION MODEL
--------------------
CPCM parameters:
  Epsilon                                         ...      25.4510
  Refrac                                          ...       1.3611
  Rsolv                                           ...       1.3000
  Surface type                                    ... GAUSSIAN VDW
  Discretization scheme                           ... Constant charge density
    Threshold for H atoms                         ...       5.0000 (charges/Ang^2)
    Threshold for non-H atoms                     ...       5.0000 (charges/Ang^2)
  Epsilon function type                           ...         CPCM
Solvent:                                          ... ETHANOL
Radii:
  Scheme                                          ... Element-dependent radii
  Radius for C  used is    3.8550 Bohr (=   2.0400 Ang.)
  Radius for O  used is    3.4469 Bohr (=   1.8240 Ang.)
  Radius for H  used is    2.4944 Bohr (=   1.3200 Ang.)
Calculating surface                               ...        done! (  0.0s)
Cavity surface points                             ...         3819
Cavity Volume                                     ...    2609.0539
Cavity Surface-area                               ...    1339.9773
Calculating surface distance matrix               ...        done! (  0.1s)
Performing Cholesky decomposition & store         ...        done! (  0.7s)
Overall time for CPCM initialization              ...                 0.8s

----------------------------------------D-I-I-S--------------------------------------------
Iteration    Energy (Eh)           Delta-E    RMSDP     MaxDP     DIISErr   Damp  Time(sec)
-------------------------------------------------------------------------------------------
               ***  Starting incremental Fock matrix formation  ***
    1    -999.1971683429849236     0.00e+00  4.49e-03  8.27e-02  2.45e-01  0.700  13.2
    2    -999.4392889695575377    -2.42e-01  3.13e-03  5.11e-02  9.66e-02  0.700   8.7
                               ***Turning on AO-DIIS***
    3    -999.5425673970887601    -1.03e-01  1.42e-03  1.80e-02  4.02e-02  0.700   8.4
    4    -999.6032139461956376    -6.06e-02  2.68e-03  3.33e-02  2.12e-02  0.000   8.9
    5    -999.7333953479894717    -1.30e-01  3.88e-04  7.72e-03  5.99e-03  0.000   8.5
                              *** Initializing SOSCF ***
---------------------------------------S-O-S-C-F--------------------------------------
Iteration    Energy (Eh)           Delta-E    RMSDP     MaxDP     MaxGrad    Time(sec)
--------------------------------------------------------------------------------------
    6    -999.7341262683678451    -7.31e-04  1.35e-04  2.48e-03  1.95e-03     7.4
               *** Restarting incremental Fock matrix formation ***
    7    -999.7341876952466464    -6.14e-05  9.23e-05  1.37e-03  2.32e-04    14.5
    8    -999.7341883966289515    -7.01e-07  3.52e-05  8.11e-04  3.16e-04     9.3
    9    -999.7341943210333284    -5.92e-06  2.34e-05  3.67e-04  9.58e-05     8.1
   10    -999.7341942706300415     5.04e-08  9.83e-06  1.58e-04  6.15e-05     7.7
   11    -999.7341948528617195    -5.82e-07  3.12e-06  6.78e-05  8.01e-06     6.9
   12    -999.7341948496239183     3.24e-09  1.82e-06  5.13e-05  1.39e-05     6.3
                 **** Energy Check signals convergence ****

               *****************************************************
               *                     SUCCESS                       *
               *           SCF CONVERGED AFTER  12 CYCLES          *
               *****************************************************

Recomputing exchange energy using gridx3       ... done (   19.416 sec)
Old exchange energy                            :    -27.238806416 Eh
New exchange energy                            :    -27.238868139 Eh
Exchange energy change after final integration :     -0.000061723 Eh
Total energy after final integration           :   -999.734256582 Eh
             **** ENERGY FILE WAS UPDATED (opt.en.tmp) ****

----------------
TOTAL SCF ENERGY
----------------

Total Energy       :       -999.73425658181225 Eh          -27204.15215 eV

Components:
Nuclear Repulsion  :       1743.12193034442384 Eh           47432.75916 eV
Electronic Energy  :      -2742.84056159733609 Eh          -74636.48613 eV
One Electron Energy:      -4819.55074596457962 Eh         -131146.64316 eV
Two Electron Energy:       2076.71018436724353 Eh           56510.15704 eV
CPCM Dielectric    :         -0.01556360581353 Eh              -0.42351 eV

Virial components:
Potential Energy   :      -1990.16496652302271 Eh          -54155.14193 eV
Kinetic Energy     :        990.43070994121047 Eh           26950.98978 eV
Virial Ratio       :          2.00939343514616

DFT components:
N(Alpha)           :       82.999987355073 electrons
N(Beta)            :       82.999987355073 electrons
N(Total)           :      165.999974710145 electrons
E(X)               :     -108.159667065199 Eh       
E(C)               :       -6.606114241049 Eh       
E(XC)              :     -114.765781306248 Eh       

CPCM Solvation Model Properties:
Surface-charge          :         -0.03156133210518
Corrected charge        :         -0.00000000000000
Outlying charge corr.   :          0.00004697892908 Eh               0.00128 eV
Free-energy (cav+disp)  :  This term is not implemented in the current solvation scheme

---------------
SCF CONVERGENCE
---------------

  Last Energy change         ...   -3.2378e-09  Tolerance :   1.0000e-08
  Last MAX-Density change    ...    5.1278e-05  Tolerance :   1.0000e-07
  Last RMS-Density change    ...    1.8231e-06  Tolerance :   5.0000e-09
  Last DIIS Error            ...    1.9541e-03  Tolerance :   5.0000e-07
  Last Orbital Gradient      ...    1.3864e-05  Tolerance :   1.0000e-05
  Last Orbital Rotation      ...    3.1472e-05  Tolerance :   1.0000e-05


----------------
ORBITAL ENERGIES
----------------

  NO   OCC          E(Eh)            E(eV) 
   0   2.0000     -19.167147      -521.5646 
   1   2.0000     -19.165054      -521.5076 
   2   2.0000     -19.117415      -520.2113 
   3   2.0000     -10.270377      -279.4712 
   4   2.0000     -10.265607      -279.3414 
   5   2.0000     -10.253265      -279.0055 
   6   2.0000     -10.232542      -278.4416 
   7   2.0000     -10.196309      -277.4557 
   8   2.0000     -10.194319      -277.4015 
   9   2.0000     -10.193395      -277.3764 
  10   2.0000     -10.193215      -277.3715 
  11   2.0000     -10.192293      -277.3464 
  12   2.0000     -10.191453      -277.3235 
  13   2.0000     -10.189023      -277.2574 
  14   2.0000     -10.186942      -277.2008 
  15   2.0000     -10.186593      -277.1913 
  16   2.0000     -10.185239      -277.1545 
  17   2.0000     -10.184001      -277.1208 
  18   2.0000     -10.183201      -277.0990 
  19   2.0000     -10.171926      -276.7922 
  20   2.0000     -10.167134      -276.6618 
  21   2.0000     -10.166933      -276.6563 
  22   2.0000     -10.165250      -276.6105 
  23   2.0000      -1.065565       -28.9955 
  24   2.0000      -1.061357       -28.8810 
  25   2.0000      -1.014327       -27.6012 
  26   2.0000      -0.865972       -23.5643 
  27   2.0000      -0.857992       -23.3471 
  28   2.0000      -0.817757       -22.2523 
  29   2.0000      -0.781927       -21.2773 
  30   2.0000      -0.762157       -20.7394 
  31   2.0000      -0.751316       -20.4443 
  32   2.0000      -0.745687       -20.2912 
  33   2.0000      -0.729760       -19.8578 
  34   2.0000      -0.697805       -18.9882 
  35   2.0000      -0.676167       -18.3994 
  36   2.0000      -0.675494       -18.3811 
  37   2.0000      -0.655579       -17.8392 
  38   2.0000      -0.621842       -16.9212 
  39   2.0000      -0.609933       -16.5971 
  40   2.0000      -0.601695       -16.3729 
  41   2.0000      -0.585283       -15.9264 
  42   2.0000      -0.564110       -15.3502 
  43   2.0000      -0.548005       -14.9120 
  44   2.0000      -0.537980       -14.6392 
  45   2.0000      -0.518849       -14.1186 
  46   2.0000      -0.500952       -13.6316 
  47   2.0000      -0.483329       -13.1521 
  48   2.0000      -0.478287       -13.0148 
  49   2.0000      -0.470064       -12.7911 
  50   2.0000      -0.463391       -12.6095 
  51   2.0000      -0.456459       -12.4209 
  52   2.0000      -0.448013       -12.1911 
  53   2.0000      -0.447145       -12.1674 
  54   2.0000      -0.437769       -11.9123 
  55   2.0000      -0.432173       -11.7600 
  56   2.0000      -0.431180       -11.7330 
  57   2.0000      -0.428441       -11.6585 
  58   2.0000      -0.426443       -11.6041 
  59   2.0000      -0.416430       -11.3316 
  60   2.0000      -0.415498       -11.3063 
  61   2.0000      -0.397821       -10.8253 
  62   2.0000      -0.392685       -10.6855 
  63   2.0000      -0.390451       -10.6247 
  64   2.0000      -0.389701       -10.6043 
  65   2.0000      -0.376154       -10.2357 
  66   2.0000      -0.372073       -10.1246 
  67   2.0000      -0.369255       -10.0479 
  68   2.0000      -0.363099        -9.8804 
  69   2.0000      -0.359793        -9.7905 
  70   2.0000      -0.359449        -9.7811 
  71   2.0000      -0.349838        -9.5196 
  72   2.0000      -0.329507        -8.9664 
  73   2.0000      -0.329039        -8.9536 
  74   2.0000      -0.324934        -8.8419 
  75   2.0000      -0.323858        -8.8126 
  76   2.0000      -0.314169        -8.5490 
  77   2.0000      -0.270013        -7.3474 
  78   2.0000      -0.266781        -7.2595 
  79   2.0000      -0.261645        -7.1197 
  80   2.0000      -0.259674        -7.0661 
  81   2.0000      -0.236853        -6.4451 
  82   2.0000      -0.223852        -6.0913 
  83   0.0000      -0.072021        -1.9598 
  84   0.0000      -0.018271        -0.4972 
  85   0.0000      -0.011933        -0.3247 
  86   0.0000      -0.009787        -0.2663 
  87   0.0000       0.032501         0.8844 
  88   0.0000       0.061435         1.6717 
  89   0.0000       0.071830         1.9546 
  90   0.0000       0.079685         2.1683 
  91   0.0000       0.092554         2.5185 
  92   0.0000       0.096402         2.6232 
  93   0.0000       0.101712         2.7677 
*Only the first 10 virtual orbitals were printed.

                    ********************************
                    * MULLIKEN POPULATION ANALYSIS *
                    ********************************

-----------------------
MULLIKEN ATOMIC CHARGES
-----------------------
   0 C :    0.110498
   1 C :   -0.266663
   2 C :    0.092414
   3 C :    0.088846
   4 C :    0.112270
   5 C :   -0.033664
   6 C :   -0.007350
   7 C :    0.055057
   8 C :   -0.016601
   9 C :   -0.046132
  10 C :    0.174558
  11 O :   -0.185494
  12 C :   -0.189630
  13 C :    0.184731
  14 O :   -0.352487
  15 C :    0.031890
  16 C :   -0.004369
  17 C :   -0.029909
  18 C :    0.247018
  19 O :   -0.325010
  20 C :    0.181646
  21 C :   -0.085930
  22 C :   -0.008668
  23 H :    0.003778
  24 H :    0.008509
  25 H :    0.006900
  26 H :    0.004971
  27 H :    0.005312
  28 H :    0.005069
  29 H :    0.006141
  30 H :    0.005089
  31 H :    0.005340
  32 H :   -0.017732
  33 H :   -0.017648
  34 H :   -0.010103
  35 H :   -0.007370
  36 H :    0.198107
  37 H :    0.007594
  38 H :   -0.003780
  39 H :   -0.016185
  40 H :    0.041412
  41 H :    0.035946
  42 H :    0.035802
  43 H :   -0.007217
  44 H :   -0.016954
Sum of atomic charges:   -0.0000000

--------------------------------
MULLIKEN REDUCED ORBITAL CHARGES
--------------------------------
  0 C s       :     2.924682  s :     2.924682
      pz      :     0.981428  p :     2.935960
      px      :     0.970819
      py      :     0.983712
      dz2     :     0.003682  d :     0.028861
      dxz     :     0.006905
      dyz     :     0.007908
      dx2y2   :     0.007546
      dxy     :     0.002820

  1 C s       :     3.198278  s :     3.198278
      pz      :     1.046753  p :     3.016104
      px      :     0.961880
      py      :     1.007471
      dz2     :     0.008311  d :     0.052282
      dxz     :     0.011712
      dyz     :     0.011159
      dx2y2   :     0.012710
      dxy     :     0.008390

  2 C s       :     2.956775  s :     2.956775
      pz      :     0.962075  p :     2.921700
      px      :     0.990349
      py      :     0.969276
      dz2     :     0.004277  d :     0.029112
      dxz     :     0.008601
      dyz     :     0.005677
      dx2y2   :     0.008509
      dxy     :     0.002048

  3 C s       :     2.958835  s :     2.958835
      pz      :     0.982211  p :     2.923245
      px      :     0.993518
      py      :     0.947516
      dz2     :     0.003007  d :     0.029074
      dxz     :     0.007607
      dyz     :     0.007452
      dx2y2   :     0.007091
      dxy     :     0.003917

  4 C s       :     3.066802  s :     3.066802
      pz      :     0.916680  p :     2.778028
      px      :     0.932000
      py      :     0.929348
      dz2     :     0.010218  d :     0.042900
      dxz     :     0.013353
      dyz     :     0.006668
      dx2y2   :     0.006416
      dxy     :     0.006245

  5 C s       :     3.260083  s :     3.260083
      pz      :     0.927046  p :     2.738219
      px      :     0.820731
      py      :     0.990441
      dz2     :     0.008421  d :     0.035361
      dxz     :     0.012541
      dyz     :     0.004783
      dx2y2   :     0.005143
      dxy     :     0.004473

  6 C s       :     3.267716  s :     3.267716
      pz      :     0.825839  p :     2.703832
      px      :     0.934955
      py      :     0.943038
      dz2     :     0.008494  d :     0.035802
      dxz     :     0.010894
      dyz     :     0.003343
      dx2y2   :     0.006130
      dxy     :     0.006941

  7 C s       :     3.073965  s :     3.073965
      pz      :     0.916072  p :     2.830107
      px      :     0.893198
      py      :     1.020836
      dz2     :     0.010248  d :     0.040871
      dxz     :     0.012530
      dyz     :     0.006329
      dx2y2   :     0.005873
      dxy     :     0.005891

  8 C s       :     3.242806  s :     3.242806
      pz      :     0.915693  p :     2.737771
      px      :     0.854170
      py      :     0.967908
      dz2     :     0.008724  d :     0.036024
      dxz     :     0.012205
      dyz     :     0.005155
      dx2y2   :     0.005270
      dxy     :     0.004670

  9 C s       :     3.255594  s :     3.255594
      pz      :     0.840360  p :     2.755227
      px      :     0.939837
      py      :     0.975030
      dz2     :     0.009097  d :     0.035311
      dxz     :     0.010416
      dyz     :     0.003311
      dx2y2   :     0.006109
      dxy     :     0.006378

 10 C s       :     3.086681  s :     3.086681
      pz      :     0.839335  p :     2.657183
      px      :     0.966601
      py      :     0.851248
      dz2     :     0.020102  d :     0.081577
      dxz     :     0.018504
      dyz     :     0.015463
      dx2y2   :     0.013689
      dxy     :     0.013819

 11 O s       :     3.663874  s :     3.663874
      pz      :     1.443022  p :     4.507544
[...]
 H      4   2   1     1.101020748720   111.91090716   182.66527015
 H      4   2   1     1.102614279906   110.10674414   302.48183956
 H      4   2   1     1.102344695685   110.92388912    61.98127381
 H      6   5   2     1.090317448437   120.37724002     0.00000000
 H      7   6   5     1.091063418724   119.62377433   179.94462909
 H      9   8   7     1.091612536225   120.56026710   180.78153601
 H     10   9   8     1.092527363743   118.18055326   180.15788497
 H     12  11   8     1.026949988580   104.86536857   180.34400495
 H     13  11   8     1.085383242120   119.42449849     0.26843335
 H     17  16  14     1.091166439753   120.78073022     0.00000000
 H     18  17  16     1.092477245648   120.99751018   180.01080741
 H     21  20  19     1.097769692323   106.29124582   179.96523603
 H     21  20  19     1.103169802935   111.38614080   298.87283517
 H     21  20  19     1.103139494384   111.39718718    61.02902916
 H     22  19  18     1.090365258741   121.00243242   179.95235092
 H     23  22  19     1.091630544446   119.67557227   180.02390935

---------------------------
INTERNAL COORDINATES (A.U.)
---------------------------
 C      0   0   0     0.000000000000     0.00000000     0.00000000
 C      1   0   0     2.910090320891     0.00000000     0.00000000
 C      2   1   0     2.924372246941   108.32438773     0.00000000
 C      2   1   3     2.924491798863   108.31934477   118.59995377
 C      2   1   3     2.909744685646   112.25450272   239.30702191
 C      5   2   1     2.656193110352   123.00872500     0.90620449
 C      6   5   2     2.639958332274   121.54412993   180.05368180
 C      7   6   5     2.656486209509   121.09894665     0.22468329
 C      8   7   6     2.663959983749   117.76562035   359.58046421
 C      9   8   7     2.630158892909   120.76014673     0.26736836
 C      8   7   6     2.795096316859   119.61497488   179.55278966
 O     11   8   7     2.498711914925   115.22305775     5.99398416
 C     11   8   7     2.621939796648   124.37194297   186.47263317
 C     13  11   8     2.721362369093   120.07157628   179.63011969
 O     14  13  11     2.388979324348   120.38565385     0.21915744
 C     14  13  11     2.812583054686   120.95702692   180.22945941
 C     16  14  13     2.669259387218   123.56609361     0.46175723
 C     17  16  14     2.623850089971   121.01925935   179.95155213
 C     18  17  16     2.665073593896   120.46618413     0.00000000
 O     19  18  17     2.548187019482   116.24392218   180.00114638
 C     20  19  18     2.687380080705   119.67406140   179.96600169
 C     19  18  17     2.660788210786   119.27552274     0.00000000
 C     22  19  18     2.634258268324   119.55263892     0.00000000
 H      1   2   3     2.081676191804   109.50269229   300.43433707
 H      1   2   3     2.081857783221   111.92367540    59.63363372
 H      1   2   3     2.082003261113   111.89171465   181.20601402
 H      3   2   1     2.080804709676   111.94812220   177.26606035
 H      3   2   1     2.083707564139   110.09716404    57.47458759
 H      3   2   1     2.083122268053   110.94564796   297.98404417
 H      4   2   1     2.080627682846   111.91090716   182.66527015
 H      4   2   1     2.083639020372   110.10674414   302.48183956
 H      4   2   1     2.083129580025   110.92388912    61.98127381
 H      6   5   2     2.060401376581   120.37724002     0.00000000
 H      7   6   5     2.061811056128   119.62377433   179.94462909
 H      9   8   7     2.062848737820   120.56026710   180.78153601
 H     10   9   8     2.064577511288   118.18055326   180.15788497
 H     12  11   8     1.940654231649   104.86536857   180.34400495
 H     13  11   8     2.051077077955   119.42449849     0.26843335
 H     17  16  14     2.062005737659   120.78073022     0.00000000
 H     18  17  16     2.064482801815   120.99751018   180.01080741
 H     21  20  19     2.074484076609   106.29124582   179.96523603
 H     21  20  19     2.084688806759   111.38614080   298.87283517
 H     21  20  19     2.084631531898   111.39718718    61.02902916
 H     22  19  18     2.060491724962   121.00243242   179.95235092
 H     23  22  19     2.062882768427   119.67557227   180.02390935



           ************************************************************
           *        Program running with 4 parallel MPI-processes     *
           *              working on a common directory               *
           ************************************************************
------------------------------------------------------------------------------
                   ___                                                        
                  /   \      - P O W E R E D   B Y -                         
                 /     \                                                     
                 |  |  |   _    _      __       _____    __    __             
                 |  |  |  | |  | |    /  \     |  _  \  |  |  /  |          
                  \  \/   | |  | |   /    \    | | | |  |  | /  /          
                 / \  \   | |__| |  /  /\  \   | |_| |  |  |/  /          
                |  |  |   |  __  | /  /__\  \  |    /   |      \           
                |  |  |   | |  | | |   __   |  |    \   |  |\   \          
                \     /   | |  | | |  |  |  |  | |\  \  |  | \   \       
                 \___/    |_|  |_| |__|  |__|  |_| \__\ |__|  \__/        
                                                                              
                      - O R C A' S   B I G   F R I E N D -                    
                                      &                                       
                       - I N T E G R A L  F E E D E R -                       
                                                                              
 v1 FN, 2020, v2 2021, v3 2022-2024                                           
------------------------------------------------------------------------------


----------------------
SHARK INTEGRAL PACKAGE
----------------------

Number of atoms                             ...     45
Number of basis functions                   ...    432
Number of shells                            ...    204
Maximum angular momentum                    ...      2
Integral batch strategy                     ... SHARK/LIBINT Hybrid
RI-J (if used) integral strategy            ... SPLIT-RIJ (Revised 2003 algorithm where possible)
Printlevel                                  ...      1
Contraction scheme used                     ... SEGMENTED contraction
Prescreening option                         ... SCHWARTZ
   Thresh                                   ... 2.500e-11
   Tcut                                     ... 2.500e-12
   Tpresel                                  ... 2.500e-12 
Coulomb Range Separation                    ... NOT USED
Exchange Range Separation                   ... NOT USED
Multipole approximations                    ... NOT USED
Finite Nucleus Model                        ... NOT USED
CABS basis                                  ... NOT available
Auxiliary Coulomb fitting basis             ... AVAILABLE
   # of basis functions in Aux-J            ...   1369
   # of shells in Aux-J                     ...    455
   Maximum angular momentum in Aux-J        ...      4
Auxiliary J/K fitting basis                 ... NOT available
Auxiliary Correlation fitting basis         ... NOT available
Auxiliary 'external' fitting basis          ... NOT available

Checking pre-screening integrals            ... done (  0.0 sec) Dimension = 204
   => SHARK Basis and OBASIS are compatible. Storing Pre-screening
Shell pair information
Shell pair cut-off parameter TPreSel        ...   2.5e-12
Total number of shell pairs                 ...     20910
Shell pairs after pre-screening             ...     12198
Total number of primitive shell pairs       ...     75056
Primitive shell pairs kept                  ...     28782
          la=0 lb=0:   3856 shell pairs
          la=1 lb=0:   4557 shell pairs
          la=1 lb=1:   1397 shell pairs
          la=2 lb=0:   1410 shell pairs
          la=2 lb=1:    843 shell pairs
          la=2 lb=2:    135 shell pairs

Checking whether 4 symmetric matrices of dimension 432 fit in memory
:Max Core in MB      =   2500.00
 MB in use           =     16.85
 MB left             =   2483.15
 MB needed           =      2.85
 Data fit in memory  = YES
Calculating RI/J V-Matrix + Cholesky decomp.... done (  0.2 sec)
Calculating Nuclear repulsion               ... done (  0.0 sec) ENN=   1726.213969172392 Eh

Diagonalization of the overlap matrix:
Smallest eigenvalue                        ... 2.691e-04
Time for diagonalization                   ...    0.024 sec
Threshold for overlap eigenvalues          ... 1.000e-07
Number of eigenvalues below threshold      ... 0
Time for construction of square roots      ...    0.017 sec
Total time needed                          ...    0.044 sec

-------------------
DFT GRID GENERATION
-------------------

General Integration Accuracy     IntAcc      ... 4.388
Radial Grid Type                 RadialGrid  ... OptM3 with GC (2021)
Angular Grid (max. ang.)         AngularGrid ... 4 (Lebedev-302)
Angular grid pruning method      GridPruning ... 4 (adaptive)
Weight generation scheme         WeightScheme... mBecke (2022)
Basis function cutoff            BFCut       ... 1.0000e-11
Integration weight cutoff        WCut        ... 1.0000e-14
Partially contracted basis set               ... off
Rotationally invariant grid construction     ... off
Angular grids for H and He will be reduced by one unit

Total number of grid points                  ...   207665
Total number of batches                      ...     3267
Average number of points per batch           ...       63
Average number of grid points per atom       ...     4615

--------------------
COSX GRID GENERATION
--------------------

GRIDX 1
-------
General Integration Accuracy     IntAcc      ... 3.816
Radial Grid Type                 RadialGrid  ... OptM3 with GC (2021)
Angular Grid (max. ang.)         AngularGrid ... 1 (Lebedev-50)
Angular grid pruning method      GridPruning ... 4 (adaptive)
Weight generation scheme         WeightScheme... mBecke (2022)
Basis function cutoff            BFCut       ... 1.0000e-11
Integration weight cutoff        WCut        ... 1.0000e-14
Partially contracted basis set               ... on
Rotationally invariant grid construction     ... off
Angular grids for H and He will be reduced by one unit

Total number of grid points                  ...    26488
Total number of batches                      ...      234
Average number of points per batch           ...      113
Average number of grid points per atom       ...      589
UseSFitting                                  ... on

GRIDX 2
-------
General Integration Accuracy     IntAcc      ... 4.020
Radial Grid Type                 RadialGrid  ... OptM3 with GC (2021)
Angular Grid (max. ang.)         AngularGrid ... 2 (Lebedev-110)
Angular grid pruning method      GridPruning ... 4 (adaptive)
Weight generation scheme         WeightScheme... mBecke (2022)
Basis function cutoff            BFCut       ... 1.0000e-11
Integration weight cutoff        WCut        ... 1.0000e-14
Partially contracted basis set               ... on
Rotationally invariant grid construction     ... off
Angular grids for H and He will be reduced by one unit

Total number of grid points                  ...    56822
Total number of batches                      ...      467
Average number of points per batch           ...      121
Average number of grid points per atom       ...     1263
UseSFitting                                  ... on

GRIDX 3
-------
General Integration Accuracy     IntAcc      ... 4.338
Radial Grid Type                 RadialGrid  ... OptM3 with GC (2021)
Angular Grid (max. ang.)         AngularGrid ... 3 (Lebedev-194)
Angular grid pruning method      GridPruning ... 4 (adaptive)
Weight generation scheme         WeightScheme... mBecke (2022)
Basis function cutoff            BFCut       ... 1.0000e-11
Integration weight cutoff        WCut        ... 1.0000e-14
Partially contracted basis set               ... on
Rotationally invariant grid construction     ... off
Angular grids for H and He will be reduced by one unit

Total number of grid points                  ...   124096
Total number of batches                      ...      985
Average number of points per batch           ...      125
Average number of grid points per atom       ...     2758
UseSFitting                                  ... on
Grids setup in   5.3 sec
Initializing property integral containers    ... done (  0.2 sec)

SHARK setup successfully completed in   6.0 seconds

Maximum memory used throughout the entire STARTUP-calculation: 59.3 MB


           ************************************************************
           *        Program running with 4 parallel MPI-processes     *
           *              working on a common directory               *
           ************************************************************
Occupation numbers will be reassigned to an Aufbau configuration
             **** ENERGY FILE WAS UPDATED (opt.en.tmp) ****
Finished Guess after   0.7 sec
Maximum memory used throughout the entire GUESS-calculation: 25.2 MB


           ************************************************************
           *        Program running with 4 parallel MPI-processes     *
           *              working on a common directory               *
           ************************************************************
--------------------
CPCM SOLVATION MODEL
--------------------
CPCM parameters:
  Epsilon                                         ...      25.4510
  Refrac                                          ...       1.3611
  Rsolv                                           ...       1.3000
  Surface type                                    ... GAUSSIAN VDW
  Discretization scheme                           ... Constant charge density
    Threshold for H atoms                         ...       5.0000 (charges/Ang^2)
    Threshold for non-H atoms                     ...       5.0000 (charges/Ang^2)
  Epsilon function type                           ...         CPCM
Solvent:                                          ... ETHANOL
Radii:
  Scheme                                          ... Element-dependent radii
  Radius for C  used is    3.8550 Bohr (=   2.0400 Ang.)
  Radius for O  used is    3.4469 Bohr (=   1.8240 Ang.)
  Radius for H  used is    2.4944 Bohr (=   1.3200 Ang.)
Calculating surface                               ...        done! (  0.0s)
Cavity surface points                             ...         3817
Cavity Volume                                     ...    2632.1218
Cavity Surface-area                               ...    1350.5983
Calculating surface distance matrix               ...        done! (  0.2s)
Performing Cholesky decomposition & store         ...        done! (  1.0s)
Overall time for CPCM initialization              ...                 1.3s

----------------------------------------D-I-I-S--------------------------------------------
Iteration    Energy (Eh)           Delta-E    RMSDP     MaxDP     DIISErr   Damp  Time(sec)
-------------------------------------------------------------------------------------------
               ***  Starting incremental Fock matrix formation  ***
                              *** Initializing SOSCF ***
---------------------------------------S-O-S-C-F--------------------------------------
Iteration    Energy (Eh)           Delta-E    RMSDP     MaxDP     MaxGrad    Time(sec)
--------------------------------------------------------------------------------------
    1    -999.7426596752602563     0.00e+00  1.26e-04  3.20e-03  2.20e-04    18.6
               *** Restarting incremental Fock matrix formation ***
    2    -999.7427611923712902    -1.02e-04  5.30e-05  8.27e-04  2.81e-04    16.7
    3    -999.7427744018959856    -1.32e-05  1.38e-05  4.23e-04  4.46e-05    10.1
    4    -999.7427743292287232     7.27e-08  8.04e-06  3.16e-04  9.54e-05     8.7
    5    -999.7427747328479199    -4.04e-07  2.80e-06  6.28e-05  1.25e-05     7.2
    6    -999.7427747442779946    -1.14e-08  1.49e-06  5.28e-05  1.26e-05     6.5
    7    -999.7427747489487047    -4.67e-09  9.54e-07  1.94e-05  6.50e-06     7.0
                 **** Energy Check signals convergence ****

               *****************************************************
               *                     SUCCESS                       *
               *           SCF CONVERGED AFTER   7 CYCLES          *
               *****************************************************

Recomputing exchange energy using gridx3       ... done (   23.341 sec)
Old exchange energy                            :    -27.187605301 Eh
New exchange energy                            :    -27.187629560 Eh
Exchange energy change after final integration :     -0.000024258 Eh
Total energy after final integration           :   -999.742799016 Eh
             **** ENERGY FILE WAS UPDATED (opt.en.tmp) ****

----------------
TOTAL SCF ENERGY
----------------

Total Energy       :       -999.74279901604200 Eh          -27204.38461 eV

Components:
Nuclear Repulsion  :       1726.21396917239235 Eh           46972.67015 eV
Electronic Energy  :      -2725.94047014489115 Eh          -74176.61126 eV
One Electron Energy:      -4786.03715460031890 Eh         -130234.69198 eV
Two Electron Energy:       2060.09668445542775 Eh           56058.08072 eV
CPCM Dielectric    :         -0.01627378517933 Eh              -0.44283 eV

Virial components:
Potential Energy   :      -1989.22136645222508 Eh          -54129.46527 eV
Kinetic Energy     :        989.47856743618308 Eh           26925.08066 eV
Virial Ratio       :          2.01037337433842

DFT components:
N(Alpha)           :       83.000066010783 electrons
N(Beta)            :       83.000066010783 electrons
N(Total)           :      166.000132021566 electrons
E(X)               :     -107.981730157818 Eh       
E(C)               :       -6.594604114419 Eh       
E(XC)              :     -114.576334272238 Eh       

CPCM Solvation Model Properties:
Surface-charge          :         -0.03206490267614
Corrected charge        :          0.00000000000000
Outlying charge corr.   :          0.00004817790187 Eh               0.00131 eV
Free-energy (cav+disp)  :  This term is not implemented in the current solvation scheme

---------------
SCF CONVERGENCE
---------------

  Last Energy change         ...    4.6707e-09  Tolerance :   1.0000e-08
  Last MAX-Density change    ...    1.9358e-05  Tolerance :   1.0000e-07
  Last RMS-Density change    ...    9.5407e-07  Tolerance :   5.0000e-09
  Last DIIS Error            ...    2.1781e-03  Tolerance :   5.0000e-07
  Last Orbital Gradient      ...    6.4979e-06  Tolerance :   1.0000e-05
  Last Orbital Rotation      ...    8.7191e-06  Tolerance :   1.0000e-05


Total SCF time: 0 days 0 hours 1 min 45 sec 
Finished LeanSCF after 106.3 sec

Maximum memory used throughout the entire LEANSCF-calculation: 73.7 MB

-------------------------   --------------------
FINAL SINGLE POINT ENERGY      -999.742799016042
-------------------------   --------------------



           ************************************************************
           *        Program running with 4 parallel MPI-processes     *
           *              working on a common directory               *
           ************************************************************
------------------------------------------------------------------------------
                         ORCA SCF GRADIENT CALCULATION
------------------------------------------------------------------------------

Nuc. rep. gradient        (SHARK) ... done (  0.0 sec)
HCore & Overlap gradient  (SHARK) ... done (  0.8 sec)
Split-RIJ-J gradient      (SHARK) ... done (  4.1 sec)
COSX-gradient                     ... 