
                                 *****************
                                 * O   R   C   A *
                                 *****************

                                            #,                                       
                                            ###                                      
                                            ####                                     
                                            #####                                    
                                            ######                                   
                                           ########,                                 
                                     ,,################,,,,,                         
                               ,,#################################,,                 
                          ,,##########################################,,             
                       ,#########################################, ''#####,          
                    ,#############################################,,   '####,        
                  ,##################################################,,,,####,       
                ,###########''''           ''''###############################       
              ,#####''   ,,,,##########,,,,          '''####'''          '####       
            ,##' ,,,,###########################,,,                        '##       
           ' ,,###''''                  '''############,,,                           
         ,,##''                                '''############,,,,        ,,,,,,###''
      ,#''                                            '''#######################'''  
     '                                                          ''''####''''         
             ,#######,   #######,   ,#######,      ##                                
            ,#'     '#,  ##    ##  ,#'     '#,    #''#        ,####,    ,#,          
            ##       ##  ##   ,#'  ##            #'  '#       #'       ,# #          
            ##       ##  #######   ##           ,######,      #####,      #          
            '#,     ,#'  ##    ##  '#,     ,#' ,#      #,     #,   #      #          
             '#######'   ##     ##  '#######'  #'      '#     '####' #    #          



                #########################################################
                #                        -***-                          #
                #          Department of theory and spectroscopy        #
                #                                                       #
                #                      Frank Neese                      #
                #                                                       #
                #     Directorship, Architecture, Infrastructure        #
                #                    SHARK, DRIVERS                     #
                #        Core code/Algorithms in most modules           #
                #                                                       #
                #        Max Planck Institute fuer Kohlenforschung      #
                #                Kaiser Wilhelm Platz 1                 #
                #                 D-45470 Muelheim/Ruhr                 #
                #                      Germany                          #
                #                                                       #
                #                  All rights reserved                  #
                #                        -***-                          #
                #########################################################


                         Program Version 6.1.1  -  RELEASE   -


 With contributions from (in alphabetic order):
[Max-Planck-Institut fuer Kohlenforschung]                               
  Daniel Aravena         : Magnetic Suceptibility                        
  Michael Atanasov       : Ab Initio Ligand Field Theory (pilot matlab implementation)
  Alexander A. Auer      : GIAO ZORA, VPT2 properties, NMR spectrum      
  Ute Becker             : All parallelization in ORCA, NUMFREQ, NUMCALC 
  Giovanni Bistoni       : ED, misc. LED, open-shell LED, HFLD           
  Dmytro Bykov           : pre 5.0 version of the SCF Hessian            
  Marcos Casanova-Páez   : Triplet and SCS-CIS(D). UHF-(DLPNO)-IP/EA/STEOM-CCSD. UHF-CVS-IP/STEOM-CCSD   
  Vijay G. Chilkuri      : MRCI spin determinant printing, contributions to CSF-ICE 
  Pauline Colinet        : FMM embedding                                 
  Dipayan Datta          : RHF DLPNO-CCSD density                        
  Achintya Kumar Dutta   : EOM-CC, STEOM-CC                              
  Nicolas Foglia         : Exact transition moments, OPA infrastructure, MCD improvements    
  Dmitry Ganyushin       : Spin-Orbit,Spin-Spin,Magnetic field MRCI      
  Miquel Garcia-Rates    : C-PCM and meta-GGA Hessian, CCSD/C-PCM, Gaussian charge scheme 
  Tiago L. C. Gouveia    : GS-ROHF, GS-ROCIS                             
  Yang Guo               : DLPNO-NEVPT2, F12-NEVPT2, CIM, IAO-localization        
  Andreas Hansen         : Spin unrestricted coupled pair/coupled cluster methods 
  Ingolf Harden          : AUTO-CI MPn and infrastructure                
  Benjamin Helmich-Paris : MC-RPA, TRAH-(SCF,CASSCF), AVAS, COSX integrals, SCF dyn. polar., MC-PDFT, srDFT 
  Lee Huntington         : MR-EOM, pCC                                   
  Robert Izsak           : Overlap fitted RIJCOSX, COSX-SCS-MP3, EOM     
  Riya Kayal             : Wick's Theorem for AUTO-CI, AUTO-CI UHF-CCSDT 
  Emily Kempfer          : AUTO-CI RHF CISDT and CCSDT, approximate NEVPT4
  Christian Kollmar      : KDIIS, OOCD, Brueckner-CCSD(T), CCSD density, CASPT2, CASPT2-K, improved NEVPT2 
  Axel Koslowski         : Symmetry handling                             
  Simone Kossmann        : meta-GGA functionals, TD-DFT gradient, OOMP2, (MP2 Hessian; deprecated post 5.0) 
  Lucas Lang             : DCDCAS, Hyperfine gauge corrections, ICE-SOC+SSC
  Marvin Lechner         : AUTO-CI (C++ implementation), FIC-MRCC        
  Spencer Leger          : CASSCF response                               
  Dagmar Lenk            : GEPOL surface, SMD, ORCA-2-JSON               
  Dimitrios Liakos       : Extrapolation schemes; Compound Job, Property file
  Dimitrios Manganas     : Further ROCIS development; embedding schemes. LFT, Crystal Embedding 
  Dimitrios Pantazis     : SARC Basis sets                               
  Anastasios Papadopoulos: AUTO-CI, single reference methods and gradients 
  Taras Petrenko         : pre 6.0 DFT Hessian and TD-DFT gradient,  ECA, NRVS 
  Petra Pikulova         : Analytic Raman intensities                    
  Peter Pinski           : DLPNO-MP2, DLPNO-MP2 Gradient                 
  Shashank Vittal Rao    : ES-AILFT, MagRelax                            
  Christoph Reimann      : Effective Core Potentials                     
  Marius Retegan         : Local ZFS, SOC                                
  Christoph Riplinger    : Optimizer, TS searches, QM/MM, DLPNO-CCSD(T), (RO)-DLPNO pert. Triples 
  Michael Roemelt        : Original ROCIS implementation, recursive CI coupling coefficients
  Masaaki Saitow         : Open-shell DLPNO-CCSD energy and density      
  Barbara Sandhoefer     : DKH picture change effects                    
  Yorick L. A. Schmerwitz: GMF and freeze-and-release deltaSCF, NEB S-IDPP initial path                    
  Kantharuban Sivalingam : CASSCF convergence/infrastructure, NEVPT2, NEVPT3, NEVPT4(SD), FIC-MRCI and CEPA variants
  Bernardo de Souza      : ESD, SOC TD-DFT                               
  Georgi L. Stoychev     : AutoAux, RI-MP2 NMR, DLPNO-MP2 response, X2C  
  Van Anh Tran           : RI-MP2 g-tensors                              
  Willem Van den Heuvel  : Paramagnetic NMR                              
  Zikuan Wang            : NOTCH, Electric field optimization            
  Frank Wennmohs         : Technical directorship and infrastructure     
  Hang Xu                : AUTO-CI-Response properties                   
                                                                         
[FACCTs GmbH]                                                            
  Markus Bursch, Nicolas Foglia, Miquel Garcia-Rates, Ingolf Harden, Hagen Neugebauer, Anastasios Papadopoulos, 
  Christoph Riplinger, Bernardo de Souza, Georgi L. Stoychev                                                    
                                                                 
  APM, various basis sets, CI-OPT, improved COSX, DLPNO-Multilevel,           
  DOCKER, DRACO, updates on ESD, Fragmentator, GOAT, IRC, LR-CPCM, L-BFGS, MBIS, meta-GGA TD-DFT gradient, ML-optimized integration grids, 
  MM, NACMEs, nearIR, NEB, NEB-TS, NL-DFT gradient (VV10), 2- and 3-layer-ONIOM, interface openCOSMO-RS, QMMM,   
  Crystal-QMMM, RESP, rigid body optimization, SF, symmetry and pop. for TD-DFT, various functionals, SOLVATOR                                   
                                                                         
[Other institutions]                                                     
  V. Asgeirsson          : NEB                                           
  Christoph Bannwarth    : sTDA-DFT, sTD-DFT, PBEh-3c, B97-3c, D3        
  Giovanni Bistoni       : ETS/NOCV, ADLD/ADEX, COVALED                  
  Martin Brehm           : Molecular dynamics                            
  Ronald Cardenas        : ETS/NOCV                                      
  Martina Colucci        : COVALED                                       
  Sebastian Ehlert       : rSCAN, r2SCAN, r2SCAN-3c, D4, dhf basis sets  
  Marvin Friede          : D4 for Fr, Ra, Ac-Lr                          
  Lars Goerigk           : TD-DFT with DH, B97 family of functionals     
  Stefan Grimme          : VdW corrections, initial TS optimization, DFT functionals, gCP, sTDA/sTD-DF 
  Waldemar Hujo          : DFT-NL                                        
  H. Jonsson             : NEB                                           
  Holger Kruse           : gCP                                           
  Marcel Mueller         : wB97X-3c, vDZP basis set                      
  Hagen Neugebauer       : wr2SCAN, Native XTB                           
  Gianluca Regni         : ADLD/ADEX                                     
  Tobias Risthaus        : pre 6.0 range-separated hybrid DFT and stability analysis
  Lukas Wittmann         : regularized MP2, r2SCAN double-hybrids, wr2SCAN        
                                                                         
We gratefully acknowledge several colleagues who have allowed us to      
interface, adapt or use parts of their codes:                            
  Ed Valeev, F. Pavosevic, A. Kumar             : LibInt (2-el integral package), F12 methods 
  Garnet Chan, S. Sharma, J. Yang, R. Olivares  : DMRG                   
  Ulf Ekstrom                                   : XCFun DFT Library      
  Mihaly Kallay                                 : mrcc  (arbitrary order and MRCC methods)
  Frank Weinhold                                : gennbo (NPA and NBO analysis)           
  Simon Mueller                                 : openCOSMO-RS                            
  Christopher J. Cramer and Donald G. Truhlar   : smd solvation model                     
  S Lehtola, MJT Oliveira, MAL Marques          : LibXC Library                           
  Liviu Ungur et al                             : ANISO software                          


 Your calculation uses the libint2 library for the computation of 2-el integrals
 For citations please refer to: http://libint.valeyev.net

 Your ORCA version has been built with support for libXC version: 7.0.0
 For citations please refer to: https://libxc.gitlab.io

 This ORCA versions uses:
   CBLAS   interface :  Fast vector & matrix operations
   LAPACKE interface :  Fast linear algebra routines
   Shared memory     :  Shared parallel matrices


  ***********************************
  * Starting time: Tue Jul 21 13:10:27 2026
  * Host name:     DESKTOP-19Q153E
  * Process ID:    29828
  * Working dir.:  C:\Users\ysm04\Documents\etc\uv_vis\calculations\02_tddft_orca\enolA\enolA_c000\b3lyp_def2tzvp\ethanol
  ***********************************

NOTE: MaxCore=2500 MB was set to SCF,MP2,MDCI,CIPSI,MRCI,RASCI and CIS
      => If you want to overwrite this, your respective input block should be placed after the MaxCore statement
================================================================================

----- Orbital basis set information -----
Your calculation utilizes the basis: def2-TZVP
   F. Weigend and R. Ahlrichs, Phys. Chem. Chem. Phys. 7, 3297 (2005).

----- AuxJ basis set information -----
Your calculation utilizes the auxiliary basis: def2/J
   H-Rn: F. Weigend, Phys. Chem. Chem. Phys. 8, 1057 (2006).
   Fr-Lr: K. Eichkorn, F. Weigend, O. Treutler, R. Ahlrichs; Theor. Chem. Acc. 97, 119 (1997).

================================================================================
                                        WARNINGS
                       Please study these warnings very carefully!
================================================================================


WARNING: CIS/ROCIS methods need fully converged wavefunctions
  ===> : Setting SCFConvForced true
         You can overwrite this default with %scf ConvForced false 


================================================================================
                                       INPUT FILE
================================================================================
NAME = td.inp
|  1> # enolA / enolA_c000 / b3lyp_def2tzvp / solvent=ethanol
|  2> ! B3LYP def2-TZVP RIJCOSX def2/J TightSCF CPCM(Ethanol)
|  3> %pal nprocs 4 end
|  4> %maxcore 2500
|  5> %scf
|  6>   MaxIter 300
|  7> end
|  8> %tddft
|  9>   nroots 18
| 10>   tda    true
| 11>   maxdim 5
| 12> end
| 13> * xyz 0 1
| 14> C     -6.2773182700    -0.3604747600    -0.3671110800
| 15> C     -5.1842447500    -0.3919115600     0.7054595900
| 16> C     -5.5840380300     0.5758264100     1.8299401600
| 17> C     -5.0960922500    -1.8233797600     1.2566386800
| 18> C     -3.8234133600     0.0184140400     0.1675635700
| 19> C     -3.6176499400     0.4269760300    -1.1461210300
| 20> C     -2.3630075500     0.7921506700    -1.5951419200
| 21> C     -1.2567656900     0.7503611100    -0.7480101200
| 22> C     -1.4575056100     0.3551166000     0.5750677900
| 23> C     -2.7151104800     0.0019312800     1.0154255500
| 24> C      0.0619824800     1.1232403600    -1.2671039200
| 25> O      0.0472279300     1.8971776400    -2.3459344500
| 26> C      1.2340650700     0.6858812400    -0.7080492800
| 27> C      2.5075943400     1.0287049800    -1.2714691800
| 28> O      2.6103106700     1.7329417800    -2.2990944800
| 29> C      3.7263464500     0.4913799800    -0.6302380200
| 30> C      3.8068522600     0.1897684800     0.7311642500
| 31> C      4.9752674700    -0.2976603800     1.2695857500
| 32> C      6.0992757800    -0.5128381000     0.4645468100
| 33> O      7.1903888800    -1.0113502700     1.0957300800
| 34> C      8.3730490800    -1.2340782800     0.3529125100
| 35> C      6.0296455100    -0.2056163700    -0.8926836800
| 36> C      4.8584325200     0.3001348700    -1.4198620500
| 37> H     -7.2217630300    -0.6755788600     0.0714160700
| 38> H     -6.4105446700     0.6436623300    -0.7626319500
| 39> H     -6.0428715600    -1.0394493300    -1.1836743400
| 40> H     -4.8686824100     0.5507861800     2.6471584200
| 41> H     -6.5619495300     0.3063819900     2.2224723000
| 42> H     -5.6328181800     1.5943207700     1.4498518700
| 43> H     -4.3812095000    -1.8938348400     2.0713338000
| 44> H     -6.0682992400    -2.1382424700     1.6289441400
| 45> H     -4.7875004200    -2.5104597900     0.4712450200
| 46> H     -4.4378929800     0.4672207700    -1.8434023100
| 47> H     -2.2247634900     1.1042238800    -2.6194109700
| 48> H     -0.6316999900     0.3465997900     1.2690116200
| 49> H     -2.8317186600    -0.2911357500     2.0473666600
| 50> H      0.9985088100     2.0471100900    -2.6177956400
| 51> H      1.2057890900     0.0194964600     0.1332106100
| 52> H      2.9639000500     0.3672264500     1.3801796500
| 53> H      5.0519843700    -0.5231310600     2.3216873700
| 54> H      9.0967685700    -1.6137939200     1.0715872400
| 55> H      8.2143143600    -1.9771267400    -0.4336201800
| 56> H      8.7466198900    -0.3052363600    -0.0867791300
| 57> H      6.8780123900    -0.3522331900    -1.5415813800
| 58> H      4.8005236100     0.5487922400    -2.4697843900
| 59> *
| 60> 
| 61>                          ****END OF INPUT****
================================================================================

                       ****************************
                       * Single Point Calculation *
                       ****************************

---------------------------------
CARTESIAN COORDINATES (ANGSTROEM)
---------------------------------
  C     -6.277318   -0.360475   -0.367111
  C     -5.184245   -0.391912    0.705460
  C     -5.584038    0.575826    1.829940
  C     -5.096092   -1.823380    1.256639
  C     -3.823413    0.018414    0.167564
  C     -3.617650    0.426976   -1.146121
  C     -2.363008    0.792151   -1.595142
  C     -1.256766    0.750361   -0.748010
  C     -1.457506    0.355117    0.575068
  C     -2.715110    0.001931    1.015426
  C      0.061982    1.123240   -1.267104
  O      0.047228    1.897178   -2.345934
  C      1.234065    0.685881   -0.708049
  C      2.507594    1.028705   -1.271469
  O      2.610311    1.732942   -2.299094
  C      3.726346    0.491380   -0.630238
  C      3.806852    0.189768    0.731164
  C      4.975267   -0.297660    1.269586
  C      6.099276   -0.512838    0.464547
  O      7.190389   -1.011350    1.095730
  C      8.373049   -1.234078    0.352913
  C      6.029646   -0.205616   -0.892684
  C      4.858433    0.300135   -1.419862
  H     -7.221763   -0.675579    0.071416
  H     -6.410545    0.643662   -0.762632
  H     -6.042872   -1.039449   -1.183674
  H     -4.868682    0.550786    2.647158
  H     -6.561950    0.306382    2.222472
  H     -5.632818    1.594321    1.449852
  H     -4.381209   -1.893835    2.071334
  H     -6.068299   -2.138242    1.628944
  H     -4.787500   -2.510460    0.471245
  H     -4.437893    0.467221   -1.843402
  H     -2.224763    1.104224   -2.619411
  H     -0.631700    0.346600    1.269012
  H     -2.831719   -0.291136    2.047367
  H      0.998509    2.047110   -2.617796
  H      1.205789    0.019496    0.133211
  H      2.963900    0.367226    1.380180
  H      5.051984   -0.523131    2.321687
  H      9.096769   -1.613794    1.071587
  H      8.214314   -1.977127   -0.433620
  H      8.746620   -0.305236   -0.086779
  H      6.878012   -0.352233   -1.541581
  H      4.800524    0.548792   -2.469784

----------------------------
CARTESIAN COORDINATES (A.U.)
----------------------------
  NO LB      ZA    FRAG     MASS         X           Y           Z
   0 C     6.0000    0    12.011  -11.862412   -0.681199   -0.693739
   1 C     6.0000    0    12.011   -9.796803   -0.740606    1.333125
   2 C     6.0000    0    12.011  -10.552303    1.088154    3.458086
   3 C     6.0000    0    12.011   -9.630219   -3.445688    2.374703
   4 C     6.0000    0    12.011   -7.225204    0.034797    0.316649
   5 C     6.0000    0    12.011   -6.836368    0.806868   -2.165855
   6 C     6.0000    0    12.011   -4.465437    1.496948   -3.014381
   7 C     6.0000    0    12.011   -2.374943    1.417977   -1.413534
   8 C     6.0000    0    12.011   -2.754286    0.671073    1.086721
   9 C     6.0000    0    12.011   -5.130815    0.003650    1.918876
  10 C     6.0000    0    12.011    0.117130    2.122617   -2.394479
  11 O     8.0000    0    15.999    0.089248    3.585146   -4.433174
  12 C     6.0000    0    12.011    2.332045    1.296128   -1.338019
  13 C     6.0000    0    12.011    4.738667    1.943971   -2.402729
  14 O     8.0000    0    15.999    4.932772    3.274785   -4.344659
  15 C     6.0000    0    12.011    7.041774    0.928574   -1.190977
  16 C     6.0000    0    12.011    7.193908    0.358610    1.381700
  17 C     6.0000    0    12.011    9.401893   -0.562497    2.399169
  18 C     6.0000    0    12.011   11.525961   -0.969124    0.877866
  19 O     8.0000    0    15.999   13.587866   -1.911175    2.070630
  20 C     6.0000    0    12.011   15.822770   -2.332070    0.666908
  21 C     6.0000    0    12.011   11.394379   -0.388559   -1.686928
  22 C     6.0000    0    12.011    9.181107    0.567173   -2.683150
  23 H     1.0000    0     1.008  -13.647154   -1.276659    0.134957
  24 H     1.0000    0     1.008  -12.114174    1.216346   -1.441166
  25 H     1.0000    0     1.008  -11.419372   -1.964275   -2.236820
  26 H     1.0000    0     1.008   -9.200476    1.040835    5.002404
  27 H     1.0000    0     1.008  -12.400288    0.578978    4.199864
  28 H     1.0000    0     1.008  -10.644484    3.012830    2.739823
  29 H     1.0000    0     1.008   -8.279286   -3.578829    3.914254
  30 H     1.0000    0     1.008  -11.467424   -4.040693    3.078258
  31 H     1.0000    0     1.008   -9.047065   -4.744081    0.890524
  32 H     1.0000    0     1.008   -8.386402    0.882919   -3.483526
  33 H     1.0000    0     1.008   -4.204194    2.086681   -4.949969
  34 H     1.0000    0     1.008   -1.193740    0.654979    2.398084
  35 H     1.0000    0     1.008   -5.351173   -0.550167    3.868962
  36 H     1.0000    0     1.008    1.886908    3.868477   -4.946917
  37 H     1.0000    0     1.008    2.278611    0.036843    0.251732
  38 H     1.0000    0     1.008    5.600959    0.693957    2.608162
  39 H     1.0000    0     1.008    9.546867   -0.988574    4.387353
  40 H     1.0000    0     1.008   17.190401   -3.049629    2.025006
  41 H     1.0000    0     1.008   15.522805   -3.736228   -0.819423
  42 H     1.0000    0     1.008   16.528716   -0.576813   -0.163989
  43 H     1.0000    0     1.008   12.997560   -0.665624   -2.913167
  44 H     1.0000    0     1.008    9.071675    1.037067   -4.667216

--------------------------------
INTERNAL COORDINATES (ANGSTROEM)
--------------------------------
 C      0   0   0     0.000000000000     0.00000000     0.00000000
 C      1   0   0     1.531732951485     0.00000000     0.00000000
 C      2   1   0     1.536492107894   108.29176879     0.00000000
 C      2   1   3     1.536447350260   108.13540502   118.95906345
 C      2   1   3     1.519724086259   112.68243033   239.62288744
 C      5   2   1     1.391053094946   123.09384378     2.38280671
 C      6   5   2     1.381701778294   121.25470607   179.99743567
 C      7   6   5     1.393969047975   121.01071522     0.64734961
 C      8   7   6     1.395367297201   118.07018148   358.70946802
 C      9   8   7     1.378486429423   120.44560884     0.82087031
 C      8   7   6     1.465467176076   119.42270277   178.95051386
 O     11   8   7     1.327807185769   115.22069466    22.23812287
 C     11   8   7     1.370256431524   122.95669448   203.72556669
 C     13  11   8     1.434171155048   121.53272908   177.60075016
 O     14  13  11     1.250005548837   122.04629179   359.57343221
 C     14  13  11     1.478259876277   118.34674165   181.46834290
 C     16  14  13     1.396734342363   123.28559924   331.07522702
 C     17  16  14     1.375746600280   120.45934633   180.55372914
 C     18  17  16     1.399208285799   120.76819316   359.37508661
 O     19  18  17     1.355520011272   115.80263820   180.82098698
 C     20  19  18     1.414238614026   119.10943209   181.08010275
 C     19  18  17     1.393308353836   119.10425130     1.05732457
 C     22  19  18     1.380377201529   119.68357239   359.83248885
 H      1   2   3     1.087921210298   109.34807948   299.59583931
 H      1   2   3     1.087417733797   111.16617659    58.65297117
 H      1   2   3     1.087541853962   111.04538517   180.51945660
 H      3   2   1     1.086373030161   111.38767465   176.75627835
 H      3   2   1     1.087654668649   110.00112554    56.59783225
 H      3   2   1     1.088199141968   110.21438373   296.98009712
 H      4   2   1     1.086162696421   111.54749583   183.84468014
 H      4   2   1     1.087628757021   109.95169732   303.91824454
 H      4   2   1     1.088187064036   110.21917829    63.51900971
 H      6   5   2     1.077320503474   120.63641071     0.00000000
 H      7   6   5     1.079642623887   120.06451596   179.86912897
 H      9   8   7     1.078696202492   120.13842700   182.30823457
 H     10   9   8     1.079068212035   118.27288500   180.44498331
 H     12  11   8     1.000661560591   107.30799566   182.21531761
 H     13  11   8     1.073585771414   119.68900248     1.61839506
 H     17  16  14     1.078554935503   120.39418707   358.49503840
 H     18  17  16     1.078721617977   121.07530354   179.28660134
 H     21  20  19     1.088323129869   105.31943253   179.10089334
 H     21  20  19     1.093595628046   111.30845137   297.72140154
 H     21  20  19     1.093449221829   111.29235985    60.46499908
 H     22  19  18     1.078096043984   121.13086183   179.58660391
 H     23  22  19     1.080518787224   120.05843707   179.45157366

---------------------------
INTERNAL COORDINATES (A.U.)
---------------------------
 C      0   0   0     0.000000000000     0.00000000     0.00000000
 C      1   0   0     2.894555788609     0.00000000     0.00000000
 C      2   1   0     2.903549290851   108.29176879     0.00000000
 C      2   1   3     2.903464711180   108.13540502   118.95906345
 C      2   1   3     2.871862322154   112.68243033   239.62288744
 C      5   2   1     2.628709387192   123.09384378     2.38280671
 C      6   5   2     2.611037959727   121.25470607   179.99743567
 C      7   6   5     2.634219739836   121.01071522     0.64734961
 C      8   7   6     2.636862047939   118.07018148   358.70946802
 C      9   8   7     2.604961830936   120.44560884     0.82087031
 C      8   7   6     2.769331621035   119.42270277   178.95051386
 O     11   8   7     2.509191939756   115.22069466    22.23812287
 C     11   8   7     2.589409388825   122.95669448   203.72556669
 C     13  11   8     2.710190712209   121.53272908   177.60075016
 O     14  13  11     2.362168153184   122.04629179   359.57343221
 C     14  13  11     2.793506320927   118.34674165   181.46834290
 C     16  14  13     2.639445388909   123.28559924   331.07522702
 C     17  16  14     2.599784304203   120.45934633   180.55372914
 C     18  17  16     2.644120464474   120.76819316   359.37508661
 O     19  18  17     2.561561590353   115.80263820   180.82098698
 C     20  19  18     2.672523668526   119.10943209   181.08010275
 C     19  18  17     2.632971208855   119.10425130     1.05732457
 C     22  19  18     2.608534872399   119.68357239   359.83248885
 H      1   2   3     2.055873142747   109.34807948   299.59583931
 H      1   2   3     2.054921710046   111.16617659    58.65297117
 H      1   2   3     2.055156263164   111.04538517   180.51945660
 H      3   2   1     2.052947506283   111.38767465   176.75627835
 H      3   2   1     2.055369452028   110.00112554    56.59783225
 H      3   2   1     2.056398357489   110.21438373   296.98009712
 H      4   2   1     2.052550033118   111.54749583   183.84468014
 H      4   2   1     2.055320486147   109.95169732   303.91824454
 H      4   2   1     2.056375533504   110.21917829    63.51900971
 H      6   5   2     2.035840710023   120.63641071     0.00000000
 H      7   6   5     2.040228881654   120.06451596   179.86912897
 H      9   8   7     2.038440404411   120.13842700   182.30823457
 H     10   9   8     2.039143400566   118.27288500   180.44498331
 H     12  11   8     1.890976302260   107.30799566   182.21531761
 H     13  11   8     2.028783089248   119.68900248     1.61839506
 H     17  16  14     2.038173448489   120.39418707   358.49503840
 H     18  17  16     2.038488432718   121.07530354   179.28660134
 H     21  20  19     2.056632660664   105.31943253   179.10089334
 H     21  20  19     2.066596238260   111.30845137   297.72140154
 H     21  20  19     2.066319570607   111.29235985    60.46499908
 H     22  19  18     2.037306269193   121.13086183   179.58660391
 H     23  22  19     2.041884590410   120.05843707   179.45157366

---------------------
BASIS SET INFORMATION
---------------------
There are 3 groups of distinct atoms

 Group   1 Type C   : 11s6p2d1f contracted to 5s3p2d1f pattern {62111/411/11/1}
 Group   2 Type O   : 11s6p2d1f contracted to 5s3p2d1f pattern {62111/411/11/1}
 Group   3 Type H   : 5s1p contracted to 3s1p pattern {311/1}

Atom   0C    basis set group =>   1
Atom   1C    basis set group =>   1
Atom   2C    basis set group =>   1
Atom   3C    basis set group =>   1
Atom   4C    basis set group =>   1
Atom   5C    basis set group =>   1
Atom   6C    basis set group =>   1
Atom   7C    basis set group =>   1
Atom   8C    basis set group =>   1
Atom   9C    basis set group =>   1
Atom  10C    basis set group =>   1
Atom  11O    basis set group =>   2
Atom  12C    basis set group =>   1
Atom  13C    basis set group =>   1
Atom  14O    basis set group =>   2
Atom  15C    basis set group =>   1
Atom  16C    basis set group =>   1
Atom  17C    basis set group =>   1
Atom  18C    basis set group =>   1
Atom  19O    basis set group =>   2
Atom  20C    basis set group =>   1
Atom  21C    basis set group =>   1
Atom  22C    basis set group =>   1
Atom  23H    basis set group =>   3
Atom  24H    basis set group =>   3
Atom  25H    basis set group =>   3
Atom  26H    basis set group =>   3
Atom  27H    basis set group =>   3
Atom  28H    basis set group =>   3
Atom  29H    basis set group =>   3
Atom  30H    basis set group =>   3
Atom  31H    basis set group =>   3
Atom  32H    basis set group =>   3
Atom  33H    basis set group =>   3
Atom  34H    basis set group =>   3
Atom  35H    basis set group =>   3
Atom  36H    basis set group =>   3
Atom  37H    basis set group =>   3
Atom  38H    basis set group =>   3
Atom  39H    basis set group =>   3
Atom  40H    basis set group =>   3
Atom  41H    basis set group =>   3
Atom  42H    basis set group =>   3
Atom  43H    basis set group =>   3
Atom  44H    basis set group =>   3
---------------------------------
AUXILIARY/J BASIS SET INFORMATION
---------------------------------
There are 3 groups of distinct atoms

 Group   1 Type C   : 12s5p4d2f1g contracted to 6s4p3d1f1g pattern {711111/2111/211/2/1}
 Group   2 Type O   : 12s5p4d2f1g contracted to 6s4p3d1f1g pattern {711111/2111/211/2/1}
 Group   3 Type H   : 5s2p1d contracted to 3s1p1d pattern {311/2/1}

Atom   0C    basis set group =>   1
Atom   1C    basis set group =>   1
Atom   2C    basis set group =>   1
Atom   3C    basis set group =>   1
Atom   4C    basis set group =>   1
Atom   5C    basis set group =>   1
Atom   6C    basis set group =>   1
Atom   7C    basis set group =>   1
Atom   8C    basis set group =>   1
Atom   9C    basis set group =>   1
Atom  10C    basis set group =>   1
Atom  11O    basis set group =>   2
Atom  12C    basis set group =>   1
Atom  13C    basis set group =>   1
Atom  14O    basis set group =>   2
Atom  15C    basis set group =>   1
Atom  16C    basis set group =>   1
Atom  17C    basis set group =>   1
Atom  18C    basis set group =>   1
Atom  19O    basis set group =>   2
Atom  20C    basis set group =>   1
Atom  21C    basis set group =>   1
Atom  22C    basis set group =>   1
Atom  23H    basis set group =>   3
Atom  24H    basis set group =>   3
Atom  25H    basis set group =>   3
Atom  26H    basis set group =>   3
Atom  27H    basis set group =>   3
Atom  28H    basis set group =>   3
Atom  29H    basis set group =>   3
Atom  30H    basis set group =>   3
Atom  31H    basis set group =>   3
Atom  32H    basis set group =>   3
Atom  33H    basis set group =>   3
Atom  34H    basis set group =>   3
Atom  35H    basis set group =>   3
Atom  36H    basis set group =>   3
Atom  37H    basis set group =>   3
Atom  38H    basis set group =>   3
Atom  39H    basis set group =>   3
Atom  40H    basis set group =>   3
Atom  41H    basis set group =>   3
Atom  42H    basis set group =>   3
Atom  43H    basis set group =>   3
Atom  44H    basis set group =>   3


           ************************************************************
           *        Program running with 4 parallel MPI-processes     *
           *              working on a common directory               *
           ************************************************************
------------------------------------------------------------------------------
                             ORCA STARTUP CALCULATIONS
                           -- RI-GTO INTEGRALS CHOSEN --
------------------------------------------------------------------------------
------------------------------------------------------------------------------
                   ___                                                        
                  /   \      - P O W E R E D   B Y -                         
                 /     \                                                     
                 |  |  |   _    _      __       _____    __    __             
                 |  |  |  | |  | |    /  \     |  _  \  |  |  /  |          
                  \  \/   | |  | |   /    \    | | | |  |  | /  /          
                 / \  \   | |__| |  /  /\  \   | |_| |  |  |/  /          
                |  |  |   |  __  | /  /__\  \  |    /   |      \           
                |  |  |   | |  | | |   __   |  |    \   |  |\   \          
                \     /   | |  | | |  |  |  |  | |\  \  |  | \   \       
                 \___/    |_|  |_| |__|  |__|  |_| \__\ |__|  \__/        
                                                                              
                      - O R C A' S   B I G   F R I E N D -                    
                                      &                                       
                       - I N T E G R A L  F E E D E R -                       
                                                                              
 v1 FN, 2020, v2 2021, v3 2022-2024                                           
------------------------------------------------------------------------------


----------------------
SHARK INTEGRAL PACKAGE
----------------------

Number of atoms                             ...     45
Number of basis functions                   ...    845
Number of shells                            ...    341
Maximum angular momentum                    ...      3
Integral batch strategy                     ... SHARK/LIBINT Hybrid
RI-J (if used) integral strategy            ... SPLIT-RIJ (Revised 2003 algorithm where possible)
Printlevel                                  ...      1
Contraction scheme used                     ... SEGMENTED contraction
Prescreening option                         ... SCHWARTZ
   Thresh                                   ... 2.500e-11
   Tcut                                     ... 2.500e-12
   Tpresel                                  ... 2.500e-12 
Coulomb Range Separation                    ... NOT USED
Exchange Range Separation                   ... NOT USED
Multipole approximations                    ... NOT USED
Finite Nucleus Model                        ... NOT USED
CABS basis                                  ... NOT available
Auxiliary Coulomb fitting basis             ... AVAILABLE
   # of basis functions in Aux-J            ...   1369
   # of shells in Aux-J                     ...    455
   Maximum angular momentum in Aux-J        ...      4
Auxiliary J/K fitting basis                 ... NOT available
Auxiliary Correlation fitting basis         ... NOT available
Auxiliary 'external' fitting basis          ... NOT available

Checking pre-screening integrals            ... done (  0.0 sec) Dimension = 341
   => SHARK Basis and OBASIS are compatible. Storing Pre-screening
Shell pair information
Shell pair cut-off parameter TPreSel        ...   2.5e-12
Total number of shell pairs                 ...     58311
Shell pairs after pre-screening             ...     33578
Total number of primitive shell pairs       ...    176100
Primitive shell pairs kept                  ...     68572
          la=0 lb=0:   9118 shell pairs
          la=1 lb=0:   9893 shell pairs
          la=1 lb=1:   2716 shell pairs
          la=2 lb=0:   4632 shell pairs
          la=2 lb=1:   2531 shell pairs
          la=2 lb=2:    602 shell pairs
          la=3 lb=0:   2193 shell pairs
          la=3 lb=1:   1202 shell pairs
          la=3 lb=2:    547 shell pairs
          la=3 lb=3:    144 shell pairs

Checking whether 4 symmetric matrices of dimension 845 fit in memory
:Max Core in MB      =   2500.00
 MB in use           =     35.22
 MB left             =   2464.78
 MB needed           =     10.91
 Data fit in memory  = YES
Calculating RI/J V-Matrix + Cholesky decomp.... done (  0.2 sec)
Calculating Nuclear repulsion               ... done (  0.0 sec) ENN=   1743.121930489142 Eh

Diagonalization of the overlap matrix:
Smallest eigenvalue                        ... 5.979e-06
Time for diagonalization                   ...    0.166 sec
Threshold for overlap eigenvalues          ... 1.000e-07
Number of eigenvalues below threshold      ... 0
Time for construction of square roots      ...    0.091 sec
Total time needed                          ...    0.265 sec

-------------------
DFT GRID GENERATION
-------------------

General Integration Accuracy     IntAcc      ... 4.388
Radial Grid Type                 RadialGrid  ... OptM3 with GC (2021)
Angular Grid (max. ang.)         AngularGrid ... 4 (Lebedev-302)
Angular grid pruning method      GridPruning ... 4 (adaptive)
Weight generation scheme         WeightScheme... mBecke (2022)
Basis function cutoff            BFCut       ... 1.0000e-11
Integration weight cutoff        WCut        ... 1.0000e-14
Partially contracted basis set               ... off
Rotationally invariant grid construction     ... off
Angular grids for H and He will be reduced by one unit

Total number of grid points                  ...   207581
Total number of batches                      ...     3262
Average number of points per batch           ...       63
Average number of grid points per atom       ...     4613

--------------------
COSX GRID GENERATION
--------------------

GRIDX 1
-------
General Integration Accuracy     IntAcc      ... 3.816
Radial Grid Type                 RadialGrid  ... OptM3 with GC (2021)
Angular Grid (max. ang.)         AngularGrid ... 1 (Lebedev-50)
Angular grid pruning method      GridPruning ... 4 (adaptive)
Weight generation scheme         WeightScheme... mBecke (2022)
Basis function cutoff            BFCut       ... 1.0000e-11
Integration weight cutoff        WCut        ... 1.0000e-14
Partially contracted basis set               ... on
Rotationally invariant grid construction     ... off
Angular grids for H and He will be reduced by one unit

Total number of grid points                  ...    26369
Total number of batches                      ...      229
Average number of points per batch           ...      115
Average number of grid points per atom       ...      586
UseSFitting                                  ... on

GRIDX 2
-------
General Integration Accuracy     IntAcc      ... 4.020
Radial Grid Type                 RadialGrid  ... OptM3 with GC (2021)
Angular Grid (max. ang.)         AngularGrid ... 2 (Lebedev-110)
Angular grid pruning method      GridPruning ... 4 (adaptive)
Weight generation scheme         WeightScheme... mBecke (2022)
Basis function cutoff            BFCut       ... 1.0000e-11
Integration weight cutoff        WCut        ... 1.0000e-14
Partially contracted basis set               ... on
Rotationally invariant grid construction     ... off
Angular grids for H and He will be reduced by one unit

Total number of grid points                  ...    56696
Total number of batches                      ...      467
Average number of points per batch           ...      121
Average number of grid points per atom       ...     1260
UseSFitting                                  ... on

GRIDX 3
-------
General Integration Accuracy     IntAcc      ... 4.338
Radial Grid Type                 RadialGrid  ... OptM3 with GC (2021)
Angular Grid (max. ang.)         AngularGrid ... 3 (Lebedev-194)
Angular grid pruning method      GridPruning ... 4 (adaptive)
Weight generation scheme         WeightScheme... mBecke (2022)
Basis function cutoff            BFCut       ... 1.0000e-11
Integration weight cutoff        WCut        ... 1.0000e-14
Partially contracted basis set               ... on
Rotationally invariant grid construction     ... off
Angular grids for H and He will be reduced by one unit

Total number of grid points                  ...   123942
Total number of batches                      ...      994
Average number of points per batch           ...      124
Average number of grid points per atom       ...     2754
UseSFitting                                  ... on
Grids setup in   6.5 sec
Initializing property integral containers    ... done (  0.2 sec)

SHARK setup successfully completed in   8.1 seconds

Maximum memory used throughout the entire STARTUP-calculation: 87.4 MB


           ************************************************************
           *        Program running with 4 parallel MPI-processes     *
           *              working on a common directory               *
           ************************************************************
-------------------------------------------------------------------------------
                                 ORCA GUESS
                   Start orbitals & Density for SCF / CASSCF
-------------------------------------------------------------------------------

------------
SCF SETTINGS
------------
Hamiltonian:
 Density Functional     Method          .... DFT(GTOs)
 Exchange Functional    Exchange        .... B88
   X-Alpha parameter    XAlpha          ....  0.666667
   Becke's b parameter  XBeta           ....  0.004200
 Correlation Functional Correlation     .... LYP
 LDA part of GGA corr.  LDAOpt          .... VWN-5
 Gradients option       PostSCFGGA      .... off
 Hybrid DFT is turned on
   Fraction HF Exchange ScalHFX         ....  0.200000
   Scaling of DF-GGA-X  ScalDFX         ....  0.720000
   Scaling of DF-GGA-C  ScalDFC         ....  0.810000
   Scaling of DF-LDA-C  ScalLDAC        ....  1.000000
   Perturbative correction              ....  0.000000
   NL short-range parameter             ....  4.800000
 RI-approximation to the Coulomb term is turned on
   Number of AuxJ basis functions       .... 1369
   RIJ-COSX (HFX calculated with COS-X)).... on


General Settings:
 Integral files         IntName         .... td
 Hartree-Fock type      HFTyp           .... RHF
 Total Charge           Charge          ....    0
 Multiplicity           Mult            ....    1
 Number of Electrons    NEL             ....  166
 Basis Dimension        Dim             ....  845
 Nuclear Repulsion      ENuc            ....   1743.1219304891 Eh

Convergence Acceleration:
 AO-DIIS                CNVDIIS         .... on
   Start iteration      DIISMaxIt       ....    12
   Startup error        DIISStart       ....  0.200000
   # of expansion vecs  DIISMaxEq       ....     5
   Bias factor          DIISBfac        ....   1.050
   Max. coefficient     DIISMaxC        ....  10.000
 MO-DIIS                CNVKDIIS        .... off
 Trust-Rad. Augm. Hess. CNVTRAH         .... auto
   Auto Start mean grad. ratio tolernc. ....  1.125000
   Auto Start start iteration           ....    50
   Auto Start num. interpolation iter.  ....    10
   Max. Number of Micro iterations      ....    24
   Max. Number of Macro iterations      .... Maxiter - #DIIS iter
   Number of Davidson start vectors     ....     2
   Converg. threshold    (grad. norm)   ....   1.000e-05
   Grad. Scal. Fac. for Micro threshold ....   0.100
   Minimum threshold for Micro iter.    ....   1.000e-02
   NR start threshold (gradient norm)   ....   1.000e-04
   Initial trust radius                 ....   0.400
   Minimum AH scaling param. (alpha)    ....   1.000
   Maximum AH scaling param. (alpha)    .... 1000.000
   Quad. conv. algorithm                .... NR
   White noise on init. David. guess    .... on
   Maximum white noise                  ....   0.010
   Pseudo random numbers                .... off
   Inactive MOs                         .... canonical
   Orbital update algorithm             .... Taylor
   Preconditioner                       .... Diag
   Full preconditioner red. dimension   ....   250
 SOSCF                 CNVSOSCF           .... on
   Start iteration     SOSCFMaxIt         ....   150
   Startup grad/error  SOSCFStart         ....  0.003300
   Hessian update      SOSCFHessUp        .... L-BFGS
   Autom. constraints  SOSCFAutoConstrain .... off
 Level Shifting         CNVShift        .... on
   Level shift para.    LevelShift      ....    0.2500
   Turn off err/grad.   ShiftErr        ....    0.0010
 Zerner damping         CNVZerner       .... off
 Static damping         CNVDamp         .... on
   Fraction old density DampFac         ....    0.7000
   Max. Damping (<1)    DampMax         ....    0.9800
   Min. Damping (>=0)   DampMin         ....    0.0000
   Turn off err/grad.   DampErr         ....    0.1000

SCF Procedure:
 Maximum # iterations   MaxIter         ....   300
 SCF integral mode      SCFMode         .... Direct
   Integral package                     .... SHARK and LIBINT hybrid scheme
 Reset frequency        DirectResetFreq ....    20
 Integral Threshold     Thresh          ....  2.500e-11 Eh
 Primitive CutOff       TCut            ....  2.500e-12 Eh

Convergence Tolerance:
 Convergence Check Mode ConvCheckMode   .... Total+1el-Energy
 Convergence forced     ConvForced      .... 1
 Energy Change          TolE            ....  1.000e-08 Eh
 1-El. energy change                    ....  1.000e-05 Eh
 Orbital Gradient       TolG            ....  1.000e-05
 Orbital Rotation angle TolX            ....  1.000e-05
 DIIS Error             TolErr          ....  5.000e-07

------------------------------
INITIAL GUESS: MODEL POTENTIAL
------------------------------
Loading Hartree-Fock densities                     ... done
Calculating cut-offs                               ... done
Initializing the effective Hamiltonian             ... done
Setting up the integral package (SHARK)            ... done
Starting the Coulomb interaction                   ... done (   1.7 sec)
Making the grid                                    ... done (   1.0 sec)
Mapping shells                                     ... done
Starting the XC term evaluation                    ... done (   1.6 sec)
  promolecular density results
     # of electrons  =    165.988190513
     EX              =   -134.072768319
     EC              =     -5.606954575
     EX+EC           =   -139.679722894
Transforming the Hamiltonian                       ... done (   0.1 sec)
Diagonalizing the Hamiltonian                      ... done (   0.2 sec)
Back transforming the eigenvectors                 ... done (   0.1 sec)
Now organizing SCF variables                       ... done
                      ------------------
                      INITIAL GUESS DONE (   4.7 sec)
                      ------------------
             **** ENERGY FILE WAS UPDATED (td.en.tmp) ****
Finished Guess after   5.3 sec
Maximum memory used throughout the entire GUESS-calculation: 63.8 MB


           ************************************************************
           *        Program running with 4 parallel MPI-processes     *
           *              working on a common directory               *
           ************************************************************

-------------------------------------------------------------------------------------------
                                      ORCA LEAN-SCF
                              memory conserving SCF solver
-------------------------------------------------------------------------------------------

--------------------
CPCM SOLVATION MODEL
--------------------
CPCM parameters:
  Epsilon                                         ...      25.4510
  Refrac                                          ...       1.3611
  Rsolv                                           ...       1.3000
  Surface type                                    ... GAUSSIAN VDW
  Discretization scheme                           ... Constant charge density
    Threshold for H atoms                         ...       5.0000 (charges/Ang^2)
    Threshold for non-H atoms                     ...       5.0000 (charges/Ang^2)
  Epsilon function type                           ...         CPCM
Solvent:                                          ... ETHANOL
Radii:
  Scheme                                          ... Element-dependent radii
  Radius for C  used is    3.8550 Bohr (=   2.0400 Ang.)
  Radius for O  used is    3.4469 Bohr (=   1.8240 Ang.)
  Radius for H  used is    2.4944 Bohr (=   1.3200 Ang.)
Calculating surface                               ...        done! (  0.0s)
Cavity surface points                             ...         3819
Cavity Volume                                     ...    2609.0539
Cavity Surface-area                               ...    1339.9773
Calculating surface distance matrix               ...        done! (  0.2s)
Performing Cholesky decomposition & store         ...        done! (  0.8s)
Overall time for CPCM initialization              ...                 0.9s

----------------------------------------D-I-I-S--------------------------------------------
Iteration    Energy (Eh)           Delta-E    RMSDP     MaxDP     DIISErr   Damp  Time(sec)
-------------------------------------------------------------------------------------------
               ***  Starting incremental Fock matrix formation  ***
    1    -1000.2036947844662791     0.00e+00  3.51e-03  2.28e-01  2.68e-01  0.700  44.3
    2    -1000.4942418391797219    -2.91e-01  3.30e-03  2.16e-01  1.06e-01  0.700  22.8
                               ***Turning on AO-DIIS***
    3    -1000.6158020193056473    -1.22e-01  1.19e-03  6.27e-02  4.30e-02  0.700  23.0
    4    -1000.6872249171456133    -7.14e-02  1.54e-03  6.77e-02  2.22e-02  0.000  21.5
    5    -1000.8414453074451558    -1.54e-01  7.18e-04  4.53e-02  6.28e-03  0.000  24.1
                              *** Initializing SOSCF ***
---------------------------------------S-O-S-C-F--------------------------------------
Iteration    Energy (Eh)           Delta-E    RMSDP     MaxDP     MaxGrad    Time(sec)
--------------------------------------------------------------------------------------
    6    -1000.8422469851070673    -8.02e-04  2.08e-04  1.26e-02  1.46e-03    26.8
               *** Restarting incremental Fock matrix formation ***
    7    -1000.8423189569548413    -7.20e-05  2.90e-04  1.07e-02  2.08e-04    74.8
    8    -1000.8423148620540815     4.09e-06  5.22e-05  1.80e-03  4.74e-04    39.6
    9    -1000.8423265320407154    -1.17e-05  5.12e-05  1.96e-03  3.72e-05    40.7
   10    -1000.8423264782695696     5.38e-08  6.95e-06  3.92e-04  4.93e-05    33.7
   11    -1000.8423267738930917    -2.96e-07  7.80e-06  2.89e-04  1.27e-05    28.0
   12    -1000.8423267558900989     1.80e-08  3.22e-06  1.87e-04  1.86e-05    28.3
   13    -1000.8423267750672494    -1.92e-08  3.40e-06  1.08e-04  2.75e-06    23.8
   14    -1000.8423267686307554     6.44e-09  1.69e-06  7.71e-05  3.41e-06    19.9
                 **** Energy Check signals convergence ****

               *****************************************************
               *                     SUCCESS                       *
               *           SCF CONVERGED AFTER  14 CYCLES          *
               *****************************************************

Recomputing exchange energy using gridx3       ... done (   82.993 sec)
Old exchange energy                            :    -27.286046468 Eh
New exchange energy                            :    -27.286055073 Eh
Exchange energy change after final integration :     -0.000008605 Eh
Total energy after final integration           :  -1000.842335423 Eh
             **** ENERGY FILE WAS UPDATED (td.en.tmp) ****

----------------
TOTAL SCF ENERGY
----------------

Total Energy       :      -1000.84233542255834 Eh          -27234.30451 eV

Components:
Nuclear Repulsion  :       1743.12193048914150 Eh           47432.75916 eV
Electronic Energy  :      -2743.94625943292749 Eh          -74666.57369 eV
One Electron Energy:      -4821.29684613676545 Eh         -131194.15697 eV
Two Electron Energy:       2077.35058670383796 Eh           56527.58327 eV
CPCM Dielectric    :         -0.01799787390854 Eh              -0.48975 eV

Virial components:
Potential Energy   :      -1997.54743240912694 Eh          -54356.02904 eV
Kinetic Energy     :        996.70509698656872 Eh           27121.72453 eV
Virial Ratio       :          2.00415091529932

DFT components:
N(Alpha)           :       82.999968942025 electrons
N(Beta)            :       82.999968942025 electrons
N(Total)           :      165.999937884051 electrons
E(X)               :     -108.398314215487 Eh       
E(C)               :       -6.612951905392 Eh       
E(XC)              :     -115.011266120879 Eh       

CPCM Solvation Model Properties:
Surface-charge          :         -0.04105856275167
Corrected charge        :         -0.00000000000000
Outlying charge corr.   :          0.00007950600800 Eh               0.00216 eV
Free-energy (cav+disp)  :  This term is not implemented in the current solvation scheme

---------------
SCF CONVERGENCE
---------------

  Last Energy change         ...   -6.4365e-09  Tolerance :   1.0000e-08
  Last MAX-Density change    ...    7.7095e-05  Tolerance :   1.0000e-07
  Last RMS-Density change    ...    1.6887e-06  Tolerance :   5.0000e-09
  Last DIIS Error            ...    1.4578e-03  Tolerance :   5.0000e-07
  Last Orbital Gradient      ...    3.4110e-06  Tolerance :   1.0000e-05
  Last Orbital Rotation      ...    6.5386e-06  Tolerance :   1.0000e-05


----------------
ORBITAL ENERGIES
----------------

  NO   OCC          E(Eh)            E(eV) 
   0   2.0000     -19.164762      -521.4997 
   1   2.0000     -19.161283      -521.4050 
   2   2.0000     -19.111134      -520.0404 
   3   2.0000     -10.261987      -279.2429 
   4   2.0000     -10.256654      -279.0977 
   5   2.0000     -10.243226      -278.7323 
   6   2.0000     -10.216526      -278.0058 
   7   2.0000     -10.187373      -277.2125 
   8   2.0000     -10.183742      -277.1137 
   9   2.0000     -10.183344      -277.1029 
  10   2.0000     -10.182669      -277.0845 
  11   2.0000     -10.180595      -277.0281 
  12   2.0000     -10.179223      -276.9907 
  13   2.0000     -10.178358      -276.9672 
  14   2.0000     -10.176847      -276.9261 
  15   2.0000     -10.175361      -276.8857 
  16   2.0000     -10.173711      -276.8408 
  17   2.0000     -10.171534      -276.7815 
  18   2.0000     -10.170866      -276.7633 
  19   2.0000     -10.162284      -276.5298 
  20   2.0000     -10.150719      -276.2151 
  21   2.0000     -10.150527      -276.2099 
  22   2.0000     -10.149094      -276.1709 
  23   2.0000      -1.082202       -29.4482 
  24   2.0000      -1.076984       -29.3062 
  25   2.0000      -1.031205       -28.0605 
  26   2.0000      -0.874659       -23.8007 
  27   2.0000      -0.867030       -23.5931 
  28   2.0000      -0.826511       -22.4905 
  29   2.0000      -0.791929       -21.5495 
  30   2.0000      -0.771115       -20.9831 
  31   2.0000      -0.760624       -20.6976 
  32   2.0000      -0.754731       -20.5373 
  33   2.0000      -0.738771       -20.1030 
  34   2.0000      -0.705797       -19.2057 
  35   2.0000      -0.684028       -18.6134 
  36   2.0000      -0.683668       -18.6036 
  37   2.0000      -0.663339       -18.0504 
  38   2.0000      -0.628761       -17.1095 
  39   2.0000      -0.617022       -16.7900 
  40   2.0000      -0.608676       -16.5629 
  41   2.0000      -0.591723       -16.1016 
  42   2.0000      -0.569885       -15.5074 
  43   2.0000      -0.552650       -15.0384 
  44   2.0000      -0.541450       -14.7336 
  45   2.0000      -0.522775       -14.2254 
  46   2.0000      -0.503988       -13.7142 
  47   2.0000      -0.488413       -13.2904 
  48   2.0000      -0.482151       -13.1200 
  49   2.0000      -0.473129       -12.8745 
  50   2.0000      -0.465579       -12.6691 
  51   2.0000      -0.460800       -12.5390 
  52   2.0000      -0.453164       -12.3312 
  53   2.0000      -0.450975       -12.2717 
  54   2.0000      -0.439718       -11.9653 
  55   2.0000      -0.435997       -11.8641 
  56   2.0000      -0.434938       -11.8353 
  57   2.0000      -0.430497       -11.7144 
  58   2.0000      -0.428320       -11.6552 
  59   2.0000      -0.418484       -11.3875 
  60   2.0000      -0.417705       -11.3663 
  61   2.0000      -0.400466       -10.8972 
  62   2.0000      -0.395344       -10.7578 
  63   2.0000      -0.392664       -10.6849 
  64   2.0000      -0.392524       -10.6811 
  65   2.0000      -0.379020       -10.3137 
  66   2.0000      -0.374781       -10.1983 
  67   2.0000      -0.372622       -10.1396 
  68   2.0000      -0.365492        -9.9455 
  69   2.0000      -0.362674        -9.8689 
  70   2.0000      -0.361870        -9.8470 
  71   2.0000      -0.351702        -9.5703 
  72   2.0000      -0.333102        -9.0642 
  73   2.0000      -0.330934        -9.0052 
  74   2.0000      -0.327778        -8.9193 
  75   2.0000      -0.325760        -8.8644 
  76   2.0000      -0.315266        -8.5788 
  77   2.0000      -0.273769        -7.4496 
  78   2.0000      -0.270016        -7.3475 
  79   2.0000      -0.265369        -7.2211 
  80   2.0000      -0.261985        -7.1290 
  81   2.0000      -0.240760        -6.5514 
  82   2.0000      -0.226908        -6.1745 
  83   0.0000      -0.077149        -2.0993 
  84   0.0000      -0.023850        -0.6490 
  85   0.0000      -0.017974        -0.4891 
  86   0.0000      -0.014826        -0.4034 
  87   0.0000       0.025360         0.6901 
  88   0.0000       0.039804         1.0831 
  89   0.0000       0.051972         1.4142 
  90   0.0000       0.056305         1.5321 
  91   0.0000       0.072618         1.9760 
  92   0.0000       0.073433         1.9982 
  93   0.0000       0.079439         2.1617 
*Only the first 10 virtual orbitals were printed.

                    ********************************
                    * MULLIKEN POPULATION ANALYSIS *
                    ********************************

-----------------------
MULLIKEN ATOMIC CHARGES
-----------------------
   0 C :   -0.411577
   1 C :    0.147323
   2 C :   -0.382262
   3 C :   -0.382973
   4 C :    0.163838
   5 C :   -0.192306
   6 C :   -0.213537
   7 C :    0.114077
   8 C :   -0.226506
   9 C :   -0.222108
  10 C :    0.246088
  11 O :   -0.403067
  12 C :   -0.318946
  13 C :    0.326110
  14 O :   -0.502120
  15 C :    0.093319
  16 C :   -0.200673
  17 C :   -0.219198
  18 C :    0.335170
  19 O :   -0.291704
  20 C :   -0.201901
  21 C :   -0.249315
  22 C :   -0.213747
  23 H :    0.126833
  24 H :    0.125655
  25 H :    0.126486
  26 H :    0.121405
  27 H :    0.120043
  28 H :    0.120299
  29 H :    0.121480
  30 H :    0.120683
  31 H :    0.119859
  32 H :    0.148511
  33 H :    0.137821
  34 H :    0.150832
  35 H :    0.144879
  36 H :    0.350433
  37 H :    0.167791
  38 H :    0.157096
  39 H :    0.129906
  40 H :    0.148864
  41 H :    0.137435
  42 H :    0.137467
  43 H :    0.153978
  44 H :    0.138258
Sum of atomic charges:   -0.0000000

--------------------------------
MULLIKEN REDUCED ORBITAL CHARGES
--------------------------------
  0 C s       :     3.334321  s :     3.334321
      pz      :     0.992156  p :     3.024347
      px      :     0.980214
      py      :     1.051976
      dz2     :     0.010520  d :     0.049112
      dxz     :     0.006738
      dyz     :     0.014356
      dx2y2   :     0.010526
      dxy     :     0.006973
      f0      :     0.000342  f :     0.003798
      f+1     :     0.000615
      f-1     :     0.000252
      f+2     :     0.001353
      f-2     :     0.000725
      f+3     :     0.000091
      f-3     :     0.000420

  1 C s       :     3.024998  s :     3.024998
      pz      :     0.893139  p :     2.636603
      px      :     0.865832
      py      :     0.877631
      dz2     :     0.034422  d :     0.180577
      dxz     :     0.036839
      dyz     :     0.036370
      dx2y2   :     0.038900
      dxy     :     0.034045
      f0      :     0.001111  f :     0.010500
      f+1     :     0.001517
      f-1     :     0.001414
      f+2     :     0.002155
      f-2     :     0.001710
      f+3     :     0.001386
      f-3     :     0.001208

  2 C s       :     3.308307  s :     3.308307
      pz      :     0.977703  p :     3.021921
      px      :     1.046071
      py      :     0.998147
      dz2     :     0.011172  d :     0.048361
      dxz     :     0.014327
      dyz     :     0.005671
      dx2y2   :     0.013687
      dxy     :     0.003504
      f0      :     0.000390  f :     0.003673
      f+1     :     0.000474
      f-1     :     0.000441
      f+2     :     0.001400
      f-2     :     0.000468
      f+3     :     0.000130
      f-3     :     0.000371

  3 C s       :     3.308732  s :     3.308732
      pz      :     1.037798  p :     3.022263
      px      :     1.057879
      py      :     0.926586
      dz2     :     0.004624  d :     0.048305
      dxz     :     0.009526
      dyz     :     0.013688
      dx2y2   :     0.008036
      dxy     :     0.012431
      f0      :     0.000047  f :     0.003673
      f+1     :     0.000325
      f-1     :     0.000706
      f+2     :     0.001230
      f-2     :     0.000344
      f+3     :     0.000589
      f-3     :     0.000432

  4 C s       :     3.206813  s :     3.206813
      pz      :     0.804068  p :     2.504404
      px      :     0.829293
      py      :     0.871043
      dz2     :     0.026248  d :     0.115291
      dxz     :     0.031347
      dyz     :     0.020107
      dx2y2   :     0.016370
      dxy     :     0.021219
      f0      :     0.001527  f :     0.009653
      f+1     :     0.002523
      f-1     :     0.000894
      f+2     :     0.001228
      f-2     :     0.001409
      f+3     :     0.000976
      f-3     :     0.001096

  5 C s       :     3.216519  s :     3.216519
      pz      :     0.929431  p :     2.887220
      px      :     0.990237
      py      :     0.967553
      dz2     :     0.015864  d :     0.081157
      dxz     :     0.029305
      dyz     :     0.012791
      dx2y2   :     0.011620
      dxy     :     0.011577
      f0      :     0.001230  f :     0.007410
      f+1     :     0.001762
      f-1     :     0.000882
      f+2     :     0.001223
      f-2     :     0.000552
      f+3     :     0.000910
      f-3     :     0.000852

  6 C s       :     3.284506  s :     3.284506
      pz      :     0.972679  p :     2.837730
      px      :     0.920414
      py      :     0.944637
      dz2     :     0.020063  d :     0.083809
      dxz     :     0.020587
      dyz     :     0.007875
      dx2y2   :     0.013297
      dxy     :     0.021988
      f0      :     0.000878  f :     0.007491
      f+1     :     0.001767
      f-1     :     0.000470
      f+2     :     0.000984
      f-2     :     0.001106
      f+3     :     0.001059
      f-3     :     0.001226

  7 C s       :     3.202494  s :     3.202494
      pz      :     0.835122  p :     2.563878
      px      :     0.767461
      py      :     0.961294
      dz2     :     0.027276  d :     0.109538
      dxz     :     0.027834
      dyz     :     0.021031
      dx2y2   :     0.013416
      dxy     :     0.019980
      f0      :     0.001538  f :     0.010014
      f+1     :     0.002602
      f-1     :     0.000930
      f+2     :     0.001338
      f-2     :     0.001340
      f+3     :     0.000965
      f-3     :     0.001301

  8 C s       :     3.257714  s :     3.257714
      pz      :     0.931566  p :     2.876780
      px      :     0.991790
      py      :     0.953425
      dz2     :     0.016969  d :     0.084573
      dxz     :     0.028834
      dyz     :     0.014201
      dx2y2   :     0.012365
      dxy     :     0.012203
      f0      :     0.001259  f :     0.007439
      f+1     :     0.001748
      f-1     :     0.000912
      f+2     :     0.001207
      f-2     :     0.000507
      f+3     :     0.000909
      f-3     :     0.000896

  9 C s       :     3.230947  s :     3.230947
      pz      :     0.987658  p :     2.899990
      px      :     0.937894
      py      :     0.974438
      dz2     :     0.020914  d :     0.083675
      dxz     :     0.020440
      dyz     :     0.007800
      dx2y2   :     0.013951
      dxy     :     0.020571
      f0      :     0.000970  f :     0.007497
      f+1     :     0.001720
      f-1     :     0.000448
      f+2     :     0.000986
      f-2     :     0.001042
      f+3     :     0.001066
      f-3     :     0.001266

 10 C s       :     3.140652  s :     3.140652
      pz      :     0.743790  p :     2.419858
      px      :     0.917610
      py      :     0.758458
      dz2     :     0.041921  d :     0.177105
      dxz     :     0.047294
      dyz     :     0.019723
      dx2y2   :     0.029019
      dxy     :     0.039148
      f0      :     0.002722  f :     0.016297
      f+1     :     0.002884
      f-1     :     0.002144
      f+2     :     0.002465
      f-2     :     0.002574
      f+3     :     0.001974
      f-3     :     0.001534

 11 O s       :     3.775859  s :     3.775859
      pz      :     1.459138  p :     4.594028
      px      :     1.531728
      py      :     1.603162
      dz2     :     0.008062  d :     0.031528
      dxz     :     0.005463
      dyz     :     0.006775
      dx2y2   :     0.008271
      dxy     :     0.002956
      f0      :     0.000271  f :     0.001652
      f+1     :     0.000139
      f-1     :     0.000418
      f+2     :     0.000316
      f-2     :     0.000240
      f+3     :     0.000215
      f-3     :     0.000054

 12 C s       :     3.194654  s :     3.194654
      pz      :     1.056687  p :     3.063959
      px      :     0.893882
      py      :     1.113390
      dz2     :     0.008965  d :     0.053352
      dxz     :     0.009749
      dyz     :     0.009390
      dx2y2   :     0.012090
      dxy     :     0.013157
      f0      :     0.000308  f :     0.006981
      f+1     :     0.001228
      f-1     :     0.000838
      f+2     :     0.001503
      f-2     :     0.000852
      f+3     :     0.001108
      f-3     :     0.001144

 13 C s       :     3.120505  s :     3.120505
      pz      :     0.733390  p :     2.327473
      px      :     0.856827
      py      :     0.737256
      dz2     :     0.040587  d :     0.208239
      dxz     :     0.071463
      dyz     :     0.022919
      dx2y2   :     0.026585
      dxy     :     0.046686
      f0      :     0.002971  f :     0.017673
      f+1     :     0.003396
      f-1     :     0.002291
      f+2     :     0.002599
      f-2     :     0.003114
      f+3     :     0.001878
      f-3     :     0.001423

 14 O s       :     3.836890  s :     3.836890
      pz      :     1.383043  p :     4.635247
      px      :     1.807405
      py      :     1.444799
      dz2     :     0.008891  d :     0.028422
      dxz     :     0.005322
      dyz     :     0.007489
      dx2y2   :     0.003987
      dxy     :     0.002733
      f0      :     0.000377  f :     0.001562
      f+1     :     0.000181
      f-1     :     0.000360
      f+2     :     0.000265
      f-2     :     0.000256
      f+3     :     0.000061
      f-3     :     0.000061

 15 C s       :     3.223095  s :     3.223095
      pz      :     0.815754  p :     2.563566
      px      :     0.782199
      py      :     0.965613
      dz2     :     0.027563  d :     0.110182
      dxz     :     0.029857
      dyz     :     0.021842
      dx2y2   :     0.013376
      dxy     :     0.017543
      f0      :     0.001318  f :     0.009839
      f+1     :     0.002833
      f-1     :     0.001184
      f+2     :     0.001063
      f-2     :     0.001265
      f+3     :     0.001031
      f-3     :     0.001145

 16 C s       :     3.246147  s :     3.246147
      pz      :     0.935905  p :     2.860859
      px      :     0.990337
      py      :     0.934617
      dz2     :     0.017561  d :     0.086212
      dxz     :     0.027764
      dyz     :     0.017837
      dx2y2   :     0.012962
      dxy     :     0.010089
      f0      :     0.001122  f :     0.007455
      f+1     :     0.001896
      f-1     :     0.001169
      f+2     :     0.000911
      f-2     :     0.000559
      f+3     :     0.001161
      f-3     :     0.000638

 17 C s       :     3.290982  s :     3.290982
      pz      :     0.949034  p :     2.849327
      px      :     0.899885
      py      :     1.000408
      dz2     :     0.016283  d :     0.071406
      dxz     :     0.017706
      dyz     :     0.008083
      dx2y2   :     0.013549
      dxy     :     0.015786
      f0      :     0.000907  f :     0.007483
      f+1     :     0.001684
      f-1     :     0.000484
      f+2     :     0.000940
      f-2     :     0.001046
      f+3     :     0.001388
      f-3     :     0.001034

 18 C s       :     3.011571  s :     3.011571
      pz      :     0.841169  p :     2.473521
      px      :     0.756864
      py      :     0.875489
      dz2     :     0.035552  d :     0.164017
      dxz     :     0.040870
      dyz     :     0.029394
      dx2y2   :     0.027614
      dxy     :     0.030587
      f0      :     0.001672  f :     0.015720
      f+1     :     0.004249
      f-1     :     0.001541
      f+2     :     0.001985
      f-2     :     0.002398
      f+3     :     0.002176
      f-3     :     0.001700

 19 O s       :     3.752862  s :     3.752862
      pz      :     1.583443  p :     4.495243
      px      :     1.224324
      py      :     1.687475
      dz2     :     0.006029  d :     0.041471
      dxz     :     0.015035
      dyz     :     0.005020
      dx2y2   :     0.007511
      dxy     :     0.007876
      f0      :     0.000128  f :     0.002129
      f+1     :     0.000346
      f-1     :     0.000061
      f+2     :     0.000423
      f-2     :     0.000340
      f+3     :     0.000407
      f-3     :     0.000424

 20 C s       :     3.272605  s :     3.272605
      pz      :     0.986335  p :     2.837462
      px      :     0.783403
      py      :     1.067724
      dz2     :     0.012306  d :     0.083808
      dxz     :     0.019375
      dyz     :     0.019173
      dx2y2   :     0.012607
      dxy     :     0.020347
      f0      :     0.000291  f :     0.008026
      f+1     :     0.001676
      f-1     :     0.000267
      f+2     :     0.001907
      f-2     :     0.001691
      f+3     :     0.001077
      f-3     :     0.001117

 21 C s       :     3.275367  s :     3.275367
      pz      :     0.923704  p :     2.894404
      px      :     0.952822
      py      :     1.017877
      dz2     :     0.017917  d :     0.072287
      dxz     :     0.019539
      dyz     :     0.013781
      dx2y2   :     0.012293
      dxy     :     0.008757
      f0      :     0.001120  f :     0.007258
      f+1     :     0.001721
      f-1     :     0.001148
      f+2     :     0.000960
      f-2     :     0.000560
      f+3     :     0.001136
      f-3     :     0.000612

 22 C s       :     3.278191  s :     3.278191
      pz      :     0.990057  p :     2.841754
      px      :     0.917544
      py      :     0.934154
      dz2     :     0.022596  d :     0.086228
      dxz     :     0.017620
      dyz     :     0.007910
      dx2y2   :     0.017628
      dxy     :     0.020474
      f0      :     0.000904  f :     0.007574
      f+1     :     0.001763
      f-1     :     0.000474
      f+2     :     0.000951
      f-2     :     0.001148
      f+3     :     0.001350
      f-3     :     0.000983

 23 H s       :     0.851468  s :     0.851468
      pz      :     0.005534  p :     0.021699
      px      :     0.011012
      py      :     0.005152

 24 H s       :     0.852906  s :     0.852906
      pz      :     0.005654  p :     0.021439
      px      :     0.004699
      py      :     0.011086

 25 H s       :     0.852125  s :     0.852125
      pz      :     0.009277  p :     0.021389
      px      :     0.004742
      py      :     0.007369

 26 H s       :     0.856719  s :     0.856719
      pz      :     0.009517  p :     0.021875
      px      :     0.007851
      py      :     0.004507

 27 H s       :     0.858383  s :     0.858383
      pz      :     0.005744  p :     0.021574
      px      :     0.011062
      py      :     0.004767

 28 H s       :     0.858218  s :     0.858218
      pz      :     0.005175  p :     0.021482
      px      :     0.004424
      py      :     0.011884

 29 H s       :     0.856568  s :     0.856568
      pz      :     0.009211  p :     0.021952
      px      :     0.008044
      py      :     0.004696

 30 H s       :     0.857720  s :     0.857720
      pz      :     0.005512  p :     0.021597
      px      :     0.010718
      py      :     0.005367

 31 H s       :     0.858660  s :     0.858660
      pz      :     0.008305  p :     0.021481
      px      :     0.005036
      py      :     0.008139

 32 H s       :     0.828430  s :     0.828430
      pz      :     0.008125  p :     0.023058
      px      :     0.010144
      py      :     0.004789

 33 H s       :     0.839481  s :     0.839481
      pz      :     0.013199  p :     0.022698
      px      :     0.004013
      py      :     0.005487

 34 H s       :     0.826382  s :     0.826382
      pz      :     0.008243  p :     0.022785
      px      :     0.010033
      py      :     0.004510

 35 H s       :     0.832328  s :     0.832328
      pz      :     0.013302  p :     0.022793
      px      :     0.003965
      py      :     0.005526

 36 H s       :     0.592542  s :     0.592542
      pz      :     0.010791  p :     0.057025
      px      :     0.034784
      py      :     0.011449

 37 H s       :     0.807729  s :     0.807729
      pz      :     0.011120  p :     0.024480
      px      :     0.003959
      py      :     0.009401

 38 H s       :     0.820191  s :     0.820191
      pz      :     0.007653  p :     0.022712
      px      :     0.010327
      py      :     0.004733

 39 H s       :     0.847614  s :     0.847614
      pz      :     0.013636  p :     0.022479
      px      :     0.003600
      py      :     0.005244

 40 H s       :     0.830301  s :     0.830301
      pz      :     0.007405  p :     0.020835
      px      :     0.007866
      py      :     0.005563

 41 H s       :     0.842389  s :     0.842389
      pz      :     0.008713  p :     0.020177
      px      :     0.003065
      py      :     0.008399

 42 H s       :     0.842354  s :     0.842354
      pz      :     0.005440  p :     0.020179
      px      :     0.004550
      py      :     0.010189

 43 H s       :     0.823064  s :     0.823064
      pz      :     0.007469  p :     0.022958
      px      :     0.010279
      py      :     0.005210

 44 H s       :     0.839066  s :     0.839066
      pz      :     0.013711  p :     0.022676
      px      :     0.003860
      py      :     0.005105



                     *******************************
                     * LOEWDIN POPULATION ANALYSIS *
                     *******************************

----------------------
LOEWDIN ATOMIC CHARGES
----------------------
   0 C :   -0.255733
   1 C :   -0.305932
   2 C :   -0.246815
   3 C :   -0.247290
   4 C :   -0.083798
   5 C :   -0.105194
   6 C :   -0.090224
   7 C :   -0.121811
   8 C :   -0.090180
   9 C :   -0.100175
  10 C :   -0.218179
  11 O :    0.129188
  12 C :   -0.157168
  13 C :   -0.295539
  14 O :    0.014226
  15 C :   -0.132014
  16 C :   -0.094791
  17 C :   -0.116368
  18 C :   -0.241385
  19 O :    0.238155
  20 C :   -0.316591
  21 C :   -0.131574
  22 C :   -0.087146
  23 H :    0.125775
  24 H :    0.123638
  25 H :    0.123979
  26 H :    0.122394
  27 H :    0.124116
  28 H :    0.124659
  29 H :    0.122028
  30 H :    0.124140
  31 H :    0.124681
  32 H :    0.156298
  33 H :    0.154418
  34 H :    0.156016
  35 H :    0.155372
  36 H :    0.190263
  37 H :    0.158202
  38 H :    0.157463
  39 H :    0.153423
  40 H :    0.119422
  41 H :    0.113662
  42 H :    0.113763
  43 H :    0.156840
  44 H :    0.155786

-------------------------------
LOEWDIN REDUCED ORBITAL CHARGES
-------------------------------
  0 C s       :     2.822456  s :     2.822456
      pz      :     1.041983  p :     3.142675
      px      :     1.036299
      py      :     1.064393
      dz2     :     0.046826  d :     0.265298
      dxz     :     0.052607
      dyz     :     0.074006
      dx2y2   :     0.060771
      dxy     :     0.031088
      f0      :     0.004437  f :     0.025304
      f+1     :     0.004389
      f-1     :     0.002466
      f+2     :     0.003731
      f-2     :     0.004435
      f+3     :     0.002063
      f-3     :     0.003783

  1 C s       :     2.688530  s :     2.688530
      pz      :     0.981410  p :     2.924267
      px      :     0.959503
      py      :     0.983354
      dz2     :     0.106258  d :     0.624684
      dxz     :     0.138336
      dyz     :     0.131780
      dx2y2   :     0.144570
      dxy     :     0.103740
      f0      :     0.009220  f :     0.068452
      f+1     :     0.009617
      f-1     :     0.009861
      f+2     :     0.009804
      f-2     :     0.010811
      f+3     :     0.010180
      f-3     :     0.008959

  2 C s       :     2.824385  s :     2.824385
      pz      :     1.031354  p :     3.133264
      px      :     1.058747
      py      :     1.043163
      dz2     :     0.052778  d :     0.264072
      dxz     :     0.077396
      dyz     :     0.043218
      dx2y2   :     0.072653
      dxy     :     0.018027
      f0      :     0.004706  f :     0.025095
      f+1     :     0.003145
      f-1     :     0.003798
      f+2     :     0.004471
      f-2     :     0.003521
      f+3     :     0.002274
      f-3     :     0.003180

  3 C s       :     2.824145  s :     2.824145
      pz      :     1.057911  p :     3.134068
      px      :     1.065148
      py      :     1.011010
      dz2     :     0.025733  d :     0.263979
      dxz     :     0.056991
      dyz     :     0.074013
      dx2y2   :     0.055950
      dxy     :     0.051292
      f0      :     0.002300  f :     0.025097
      f+1     :     0.002085
      f-1     :     0.005556
      f+2     :     0.003873
      f-2     :     0.002563
      f+3     :     0.005051
      f-3     :     0.003669

  4 C s       :     2.704089  s :     2.704089
      pz      :     1.024259  p :     2.809408
      px      :     0.968276
      py      :     0.816872
      dz2     :     0.127333  d :     0.513577
      dxz     :     0.159249
      dyz     :     0.077865
      dx2y2   :     0.074128
      dxy     :     0.075002
      f0      :     0.008999  f :     0.056724
      f+1     :     0.016658
      f-1     :     0.005207
      f+2     :     0.006963
      f-2     :     0.008584
      f+3     :     0.005515
      f-3     :     0.004797

  5 C s       :     2.749914  s :     2.749914
      pz      :     1.008216  p :     2.927354
      px      :     1.013645
[...]
    79a ->  86a  :     0.016411 (c= -0.12810614)
    80a ->  86a  :     0.037610 (c=  0.19393397)
    82a ->  87a  :     0.107233 (c=  0.32746499)

Storing amplitudes in GBW file ... 
... GBW file created

-----------------------------
TD-DFT/TDA-EXCITATION SPECTRA
-----------------------------

Center of mass = (  1.1867,  0.3624, -0.4363)
Generating CIS transition densities           ... done

----------------------------------------------------------------------------------------------------
                     ABSORPTION SPECTRUM VIA TRANSITION ELECTRIC DIPOLE MOMENTS    
----------------------------------------------------------------------------------------------------
     Transition      Energy     Energy  Wavelength fosc(D2)      D2        DX        DY        DZ   
                      (eV)      (cm-1)    (nm)                 (au**2)    (au)      (au)      (au)  
----------------------------------------------------------------------------------------------------
  0-1A  ->  1-1A    3.646194   29408.5   340.0   1.075773932  12.04268  -3.45127   0.32549  -0.15963
  0-1A  ->  2-1A    3.911878   31551.4   316.9   0.122517098   1.27836  -1.12908  -0.04539   0.03843
  0-1A  ->  3-1A    4.213175   33981.6   294.3   0.188844492   1.82952  -1.10329  -0.50689   0.59609
  0-1A  ->  4-1A    4.430751   35736.4   279.8   0.007274712   0.06702  -0.10539   0.02674  -0.23494
  0-1A  ->  5-1A    4.535774   36583.5   273.3   0.011504109   0.10352  -0.13456  -0.12351   0.26489
  0-1A  ->  6-1A    4.972352   40104.7   249.3   0.028730437   0.23584  -0.36950   0.18815  -0.25281
  0-1A  ->  7-1A    5.117011   41271.5   242.3   0.074376197   0.59328   0.08397   0.25206  -0.72298
  0-1A  ->  8-1A    5.182887   41802.8   239.2   0.029992440   0.23620   0.24701  -0.31430   0.27640
  0-1A  ->  9-1A    5.266212   42474.9   235.4   0.012879166   0.09982   0.20121   0.24266   0.02131
  0-1A  -> 10-1A    5.428172   43781.2   228.4   0.046463986   0.34939  -0.18857   0.22833  -0.51156
  0-1A  -> 11-1A    5.495219   44321.9   225.6   0.160540941   1.19246   1.07439  -0.19335  -0.02763
  0-1A  -> 12-1A    5.642010   45505.9   219.8   0.011679795   0.08450   0.14279  -0.15751   0.19824
  0-1A  -> 13-1A    5.765715   46503.6   215.0   0.003803120   0.02692   0.12428  -0.05449   0.09223
  0-1A  -> 14-1A    5.858995   47256.0   211.6   0.001774125   0.01236   0.07034  -0.06083  -0.06092
  0-1A  -> 15-1A    5.938125   47894.2   208.8   0.017172704   0.11804  -0.31954   0.07714  -0.09993
  0-1A  -> 16-1A    5.967429   48130.6   207.8   0.046157359   0.31572   0.53655   0.03419   0.16327
  0-1A  -> 17-1A    6.080307   49041.0   203.9   0.004661878   0.03130   0.10418   0.13994   0.02932
  0-1A  -> 18-1A    6.214417   50122.7   199.5   0.006886754   0.04523  -0.16831  -0.03653  -0.12478

----------------------------------------------------------------------------------------------------
                     ABSORPTION SPECTRUM VIA TRANSITION VELOCITY DIPOLE MOMENTS    
----------------------------------------------------------------------------------------------------
     Transition      Energy     Energy  Wavelength fosc(P2)      P2        PX        PY        PZ   
                      (eV)      (cm-1)    (nm)                 (au**2)    (au)      (au)      (au)  
----------------------------------------------------------------------------------------------------
  0-1A  ->  1-1A    3.646194   29408.5   340.0   0.592774716   0.11914   0.34466  -0.00537  -0.01806
  0-1A  ->  2-1A    3.911878   31551.4   316.9   0.065631482   0.01415   0.11844  -0.00217  -0.01091
  0-1A  ->  3-1A    4.213175   33981.6   294.3   0.074292059   0.01725   0.12755   0.01720  -0.02628
  0-1A  ->  4-1A    4.430751   35736.4   279.8   0.000701496   0.00017  -0.00093   0.00251  -0.01281
  0-1A  ->  5-1A    4.535774   36583.5   273.3   0.000693327   0.00017   0.01058   0.00691  -0.00369
  0-1A  ->  6-1A    4.972352   40104.7   249.3   0.003976292   0.00109   0.03138  -0.00287   0.00985
  0-1A  ->  7-1A    5.117011   41271.5   242.3   0.001997486   0.00056   0.00623  -0.02187   0.00681
  0-1A  ->  8-1A    5.182887   41802.8   239.2   0.008798354   0.00251   0.00325   0.03866  -0.03175
  0-1A  ->  9-1A    5.266212   42474.9   235.4   0.018195046   0.00528  -0.01824  -0.04395   0.05493
  0-1A  -> 10-1A    5.428172   43781.2   228.4   0.010499901   0.00314   0.05086  -0.01750   0.01578
  0-1A  -> 11-1A    5.495219   44321.9   225.6   0.101718415   0.03081  -0.17464   0.00692   0.01627
  0-1A  -> 12-1A    5.642010   45505.9   219.8   0.001250214   0.00039  -0.01664   0.01055   0.00064
  0-1A  -> 13-1A    5.765715   46503.6   215.0   0.003197220   0.00102  -0.02869   0.01387   0.00091
  0-1A  -> 14-1A    5.858995   47256.0   211.6   0.001062737   0.00034  -0.01541   0.00854   0.00572
  0-1A  -> 15-1A    5.938125   47894.2   208.8   0.009693089   0.00317   0.05621  -0.00361   0.00001
  0-1A  -> 16-1A    5.967429   48130.6   207.8   0.019237991   0.00633  -0.07828  -0.00777   0.01185
  0-1A  -> 17-1A    6.080307   49041.0   203.9   0.002056538   0.00069  -0.02378  -0.01105  -0.00127
  0-1A  -> 18-1A    6.214417   50122.7   199.5   0.006737257   0.00231   0.04763   0.00407   0.00478

------------------------------------------------------------------------------------------
                     CD SPECTRUM VIA TRANSITION ELECTRIC DIPOLE MOMENTS    
------------------------------------------------------------------------------------------
     Transition      Energy     Energy  Wavelength    R        MX        MY        MZ   
                      (eV)      (cm-1)    (nm)   (1e40*cgs)   (au)      (au)      (au)  
------------------------------------------------------------------------------------------
  0-1A  ->  1-1A    3.646194   29408.5   340.0   59.56135   0.02733  -0.27294  -0.35600
  0-1A  ->  2-1A    3.911878   31551.4   316.9  -24.80126  -0.03492  -0.25718   0.03909
  0-1A  ->  3-1A    4.213175   33981.6   294.3  -27.54723  -0.04672  -0.20942  -0.16652
  0-1A  ->  4-1A    4.430751   35736.4   279.8    0.59834  -0.01401   0.09818   0.02286
  0-1A  ->  5-1A    4.535774   36583.5   273.3    2.48813   0.03875   0.11084   0.05144
  0-1A  ->  6-1A    4.972352   40104.7   249.3    2.86354   0.02406   0.04679   0.02368
  0-1A  ->  7-1A    5.117011   41271.5   242.3  -13.80658   0.00797   0.09856  -0.00522
  0-1A  ->  8-1A    5.182887   41802.8   239.2  -12.52964   0.01934  -0.09995  -0.03478
  0-1A  ->  9-1A    5.266212   42474.9   235.4   -7.78668  -0.00855   0.07554  -0.00443
  0-1A  -> 10-1A    5.428172   43781.2   228.4  -20.39807   0.04682   0.11974  -0.04839
  0-1A  -> 11-1A    5.495219   44321.9   225.6   38.45543  -0.03895   0.16911   0.25412
  0-1A  -> 12-1A    5.642010   45505.9   219.8    1.16157  -0.02847   0.03456   0.03554
  0-1A  -> 13-1A    5.765715   46503.6   215.0    5.75407  -0.03474   0.07307  -0.04235
  0-1A  -> 14-1A    5.858995   47256.0   211.6    2.52347  -0.04373   0.02529   0.01211
  0-1A  -> 15-1A    5.938125   47894.2   208.8  -10.15554  -0.05494  -0.12521  -0.13654
  0-1A  -> 16-1A    5.967429   48130.6   207.8   -2.22700   0.00772  -0.02991   0.00983
  0-1A  -> 17-1A    6.080307   49041.0   203.9   -3.44286   0.03527  -0.01473   0.19405
  0-1A  -> 18-1A    6.214417   50122.7   199.5  -11.32389  -0.01422  -0.28026  -0.09127

------------------------------------------------------------------------------------------
                     CD SPECTRUM VIA TRANSITION VELOCITY DIPOLE MOMENTS    
------------------------------------------------------------------------------------------
     Transition      Energy     Energy  Wavelength    R        MX        MY        MZ   
                      (eV)      (cm-1)    (nm)   (1e40*cgs)   (au)      (au)      (au)  
------------------------------------------------------------------------------------------
  0-1A  ->  1-1A    3.646194   29408.5   340.0   60.92863   0.02733  -0.27294  -0.35600
  0-1A  ->  2-1A    3.911878   31551.4   316.9  -13.13117  -0.03492  -0.25718   0.03909
  0-1A  ->  3-1A    4.213175   33981.6   294.3  -15.78621  -0.04672  -0.20942  -0.16652
  0-1A  ->  4-1A    4.430751   35736.4   279.8   -0.09610  -0.01401   0.09818   0.02286
  0-1A  ->  5-1A    4.535774   36583.5   273.3    2.78783   0.03875   0.11084   0.05144
  0-1A  ->  6-1A    4.972352   40104.7   249.3    2.20302   0.02406   0.04679   0.02368
  0-1A  ->  7-1A    5.117011   41271.5   242.3   -5.36906   0.00797   0.09856  -0.00522
  0-1A  ->  8-1A    5.182887   41802.8   239.2   -6.67569   0.01934  -0.09995  -0.03478
  0-1A  ->  9-1A    5.266212   42474.9   235.4   -8.30156  -0.00855   0.07554  -0.00443
  0-1A  -> 10-1A    5.428172   43781.2   228.4   -1.13057   0.04682   0.11974  -0.04839
  0-1A  -> 11-1A    5.495219   44321.9   225.6   28.26284  -0.03895   0.16911   0.25412
  0-1A  -> 12-1A    5.642010   45505.9   219.8    1.95900  -0.02847   0.03456   0.03554
  0-1A  -> 13-1A    5.765715   46503.6   215.0    4.38711  -0.03474   0.07307  -0.04235
  0-1A  -> 14-1A    5.858995   47256.0   211.6    2.10059  -0.04373   0.02529   0.01211
  0-1A  -> 15-1A    5.938125   47894.2   208.8   -5.70059  -0.05494  -0.12521  -0.13654
  0-1A  -> 16-1A    5.967429   48130.6   207.8   -0.54903   0.00772  -0.02991   0.00983
  0-1A  -> 17-1A    6.080307   49041.0   203.9   -1.94726   0.03527  -0.01473   0.19405
  0-1A  -> 18-1A    6.214417   50122.7   199.5   -4.65063  -0.01422  -0.28026  -0.09127

Total run time:     1554.273 sec

           *** ORCA-CIS/TD-DFT FINISHED WITHOUT ERROR ***
-----------------------
CIS/TD-DFT TOTAL ENERGY
-----------------------

    E(SCF)  =  -1000.842335423 Eh
    DE(CIS) =      0.133995185 Eh (Root  1)
    ----------------------------- ---------
    E(tot)  =  -1000.708340237 Eh


Maximum memory used throughout the entire CIS-calculation: 2239.3 MB
=> NOW LEAVING ORCA_CIS

-------------------------   --------------------
FINAL SINGLE POINT ENERGY     -1000.708340237341
-------------------------   --------------------



           ************************************************************
           *        Program running with 4 parallel MPI-processes     *
           *              working on a common directory               *
           ************************************************************

------------------------------------------------------------------------------
                              ORCA PROPERTY CALCULATIONS
------------------------------------------------------------------------------

GBWName                                 ... td.gbw
Number of atoms                         ...     45
Number of basis functions               ...    845
Max core memory                         ...   2500 MB

Electric properties:
Dipole moment                           ... YES
Quadrupole moment                       ...  NO
Static polarizability (Dipole/Dipole)   ...  NO
Static polarizability (Dipole/Quad.)    ...  NO
Static polarizability (Quad./Quad.)     ...  NO
Static polarizability (Velocity)        ...  NO
Static hyperpolarizability              ...  NO

Atomic electric properties:
Dipole moment                           ...  NO
Quadrupole moment                       ...  NO
Static polarizability                   ...  NO

Choice of electric origin               ... Center of mass
Position of electric origin             ...     1.186671     0.362361    -0.436308

General magnetic properties:
Magnetizability                         ...  NO

EPR properties:
g-Tensor (aka g-matrix)                 ...  NO
Zero-Field splitting spin-orbit         ...  NO
Zero-field splitting spin-spin          ...  NO
Hyperfine couplings                     ...  NO (   0 nuclei)
Quadrupole couplings                    ...  NO (   0 nuclei)
Contact density                         ...  NO (   0 nuclei)

NMR properties:
Chemical shifts                         ...  NO (   0 nuclei)
Spin-rotation constants                 ...  NO (   0 nuclei)
Spin-spin couplings                     ...  NO (   0 nuclei,    0 pairs)

Choice of magnetic origin               ... GIAO
Position of magnetic origin             ...     0.000000     0.000000     0.000000

Properties with geometric perturbations:
SCF Hessian                             ...  NO
IR spectrum                             ...  NO
VCD spectrum                            ...  NO
X-ray spectroscopy properties:
SCF XES/XAS/RIXS spectra                ...  NO

SCF SOC stabilization energy            ...  NO
Diagonal Born-Oppenheimer correction    ...  NO

-------------
DIPOLE MOMENT
-------------

Method             : SCF
Type of density    : Electron Density
Multiplicity       :   1
Irrep              :   0
Energy             : -1000.8423354225583353 Eh
Basis              : AO
                                X                 Y                 Z
Electronic contribution:     26.056316525       7.585289039      -8.393429180
Nuclear contribution   :    -26.114003618      -8.922769997       9.626825510
                        -----------------------------------------
Total Dipole Moment    :     -0.057687093      -1.337480958       1.233396330
                        -----------------------------------------
Magnitude (a.u.)       :      1.820288334
Magnitude (Debye)      :      4.626805248



--------------------
Rotational spectrum 
--------------------
 
Rotational constants in cm-1:             0.022457             0.002653             0.002439 
Rotational constants in MHz :           673.255172            79.523278            73.128143 

Dipole components along the rotational axes: 
x,y,z [a.u.] :    -0.066907    -1.766199    -0.435332 
x,y,z [Debye]:    -0.170064    -4.489321    -1.106526 

 

Dipole moment calculation done in   0.1 sec 

Maximum memory used throughout the entire PROP-calculation: 68.4 MB

--------------------------------
SUGGESTED CITATIONS FOR THIS RUN
--------------------------------

Below you find a list of papers that are relevant to this ORCA run
We neither can nor want to force you to cite these papers, but we appreciate if you do
You receive ORCA, which is the product of decades of hard work by many enthusiastic individuals, for free
The only thing we kindly ask in return is that you cite our papers,
We deeply appreciate it, if you show your appreciation for ORCA by not just citing the generic ORCA reference.

Please note that relegating all ORCA citations to the supporting information does *not* help us.
SI sections are not indexed - citations you put there will not count into any citation statistics
But we need these citations in order to attract the funding resources that allow us to do what we are doing

Therefore, if you are a happy ORCA user, please consider citing a few of the papers listed below in the main body of your paper

In addition to the list printed below, the program has created the file td.bibtex that contains the list in bibtex format
You can import this file easily into all common literature databanks and citation aid programs

It goes without saying that in many instances, there are alternative algorithms to achieve similar
results as the ones you have gotten from ORCA. It is, of course, also the case that in some instances
ORCA just re-implements algorithms worked out by others. We are fully aware of that and we are also
fully appreciative of our colleagues work. Hence this citation list should not be read as indicating
that the listed papers, which are focused on our own work, are the only ones worth citing. It simply
meant to make it easier for users to cite ORCA specific papers. It is not a substitute for doing your
own literature research and citing the relevant literature in a scientifically appropriate manner.

List of essential papers. We consider these as the minimum necessary citations

  1. Neese, F.
     Software update: the ORCA program system, version 6.0
     WIRES Comput. Molec. Sci. 2025 15(1), e70019
     doi.org/10.1002/wcms.70019

List of papers to cite with high priority. The work reported in these papers was absolutely
necessary for this run to complete.
Our perspective: the developers of density functionals and basis sets usually get cited in chemistry papers
Good! But without the algorithms to do something with them, the functionals or basis sets would not do anything.
Hence, in our opinion, the algorithm design and method developments papers are equally worthy of getting cited

  1. Neese, F.; Olbrich, G.
     Efficient use of the resolution of the identity approximation in time-dependent density functional calculations with hybrid density functionals
     Chem. Phys. Lett. 2002 362 , 170-178
     doi.org/10.1016/s0009-2614(02)01053-9
  2. Neese, F.
     An improvement of the resolution of the identity approximation for the formation of the Coulomb matrix
     J. Comp. Chem. 2003 24(14), 1740-1747
     doi.org/10.1002/jcc.10318
  3. Neese, F.; Wennmohs, F.; Hansen, A.; Becker, U.
     Efficient, approximate and parallel Hartree-Fock and hybrid DFT calculations. A 'chain-of-spheres' algorithm for the Hartree-Fock exchange
     Chem. Phys. 2009 356(1-3), 98-109
     doi.org/10.1016/j.chemphys.2008.10.036
  4. Garcia-Rates, M.; Neese, F.
     Effect of the Solute Cavity on the Solvation Energy and its Derivatives within the Framework of the Gaussian Charge Scheme
     J. Comput. Chem. 2020 41 , 922-939
     doi.org/10.1002/jcc.26139
  5. Helmich-Paris, B.; de Souza, B.; Neese, F.; Izsák, R.
     An improved chain of spheres for exchange algorithm
     J. Chem. Phys. 2021 155(10), 104109
     doi.org/10.1063/5.0058766
  6. Neese, F.
     The SHARK Integral Generation and Digestion System
     J. Comp. Chem. 2022 44(3), 381
     doi.org/10.1002/jcc.26942

List of suggested additional citations. These are papers that are important in the 'surrounding' of 
of this run, or papers that preceded the highly important papers. If you like your results we are grateful for a citation.

  1. Izsak, R.; Neese, F.
     An overlap fitted chain of spheres exchange method
     J. Chem. Phys. 2011 135 , 144105
     doi.org/10.1063/1.3646921
  2. Izsak, R.; Hansen, A.; Neese, F.
     The resolution of identity and chain of spheres approximations for the LPNO-CCSD singles Fock term
     Molec. Phys. 2012 110 , 2413-2417
     doi.org/10.1080/00268976.2012.687466
  3. Neese, F.
     The ORCA program system
     WIRES Comput. Molec. Sci. 2012 2(1), 73-78
     doi.org/10.1002/wcms.81
  4. Izsak, R.; Neese, F.; Klopper, W.
     Robust fitting techniques in the chain of spheres approximation to the Fock exchange: The role of the complementary space
     J. Chem. Phys. 2013 139 , 
     doi.org/10.1063/1.4819264
  5. Neese, F.
     Software update: the ORCA program system, version 4.0
     WIRES Comput. Molec. Sci. 2018 8(1), 1-6
     doi.org/10.1002/wcms.1327
  6. Neese, F.; Wennmohs, F.; Becker, U.; Riplinger, C.
     The ORCA quantum chemistry program package
     J. Chem. Phys. 2020 152(22), 224108
     doi.org/10.1063/5.0004608
  7. Neese, F.
     Software update: The ORCA program system—Version 5.0
     WIRES Comput. Molec. Sci. 2022 12(1), e1606
     doi.org/10.1002/wcms.1606

List of optional additional citations

  1. Neese, F.
     Approximate second-order SCF convergence for spin unrestricted wavefunctions
     Chem. Phys. Lett. 2000 325(1-3), 93-98
     doi.org/10.1016/s0009-2614(00)00662-x

Timings for individual modules:

Sum of individual times          ...     2126.091 sec (=  35.435 min)
Startup calculation              ...        8.302 sec (=   0.138 min)   0.4 %
SCF iterations                   ...      561.630 sec (=   9.361 min)  26.4 %
Property integrals               ...        0.828 sec (=   0.014 min)   0.0 %
Property calculations            ...        0.725 sec (=   0.012 min)   0.0 %
CIS module                       ...     1554.606 sec (=  25.910 min)  73.1 %
                             ****ORCA TERMINATED NORMALLY****
TOTAL RUN TIME: 0 days 0 hours 35 minutes 27 seconds 201 msec
