45
 energy: -66.261671976583 gnorm: 0.000291094517 xtb: 6.7.1 (edcfbbe)
C           -5.85226348145561        1.97647506021202       -0.06393226111908
C           -5.30784877937679        0.65092230468523        0.47744907698431
C           -5.66568504120871        0.56051761907130        1.96872626218914
C           -5.98294226760149       -0.49659055584121       -0.28969991230486
C           -3.80173676414279        0.52510704603188        0.31688427758130
C           -3.14973170024239       -0.61038818895816        0.79754037203066
C           -1.78640885878924       -0.76791856783857        0.66976026682696
C           -1.01260915664361        0.20501224972782        0.03447187839103
C           -1.65480545853300        1.34560123260469       -0.44299939126353
C           -3.02065015461095        1.49906615812053       -0.29867490994689
C            0.43175719980545       -0.00395382795632       -0.10398960415659
O            0.96984160881944       -0.83656263507332        0.77936460411258
C            1.17623374556322        0.58278250722731       -1.09291931084364
C            2.58280726263189        0.33337615165809       -1.22295899646052
O            3.19928464107833       -0.39634336548184       -0.41582941615816
C            3.31898072499865        0.97189936848634       -2.33444584325348
C            2.71085012823887        1.40878886518027       -3.51434258413382
C            3.46062773143539        1.97932156380669       -4.51646396200985
C            4.84346251329515        2.13928802943886       -4.37500243890333
O            5.48022035755640        2.71937138246743       -5.42127438286817
C            6.88408607593796        2.88529319488067       -5.36482241281163
C            5.45983590762647        1.69856490555480       -3.20574010371592
C            4.70011482874515        1.11748851103072       -2.21078831623042
H           -6.92948500518598        2.01093829637206        0.08456477516967
H           -5.65819970407592        2.07471919622591       -1.12942272406704
H           -5.41377945146337        2.82231978735302        0.46065480389009
H           -5.36990941452668       -0.39473423412602        2.39254686439139
H           -5.16523709158838        1.35067658843932        2.52454380074382
H           -6.73959619443631        0.67246393754788        2.10026171111846
H           -5.67159081032561       -1.46508603102066        0.09176295288795
H           -5.72498124826760       -0.44634672029980       -1.34565103064318
H           -7.06389795137354       -0.42271539389873       -0.19422881009447
H           -3.71247068444040       -1.39273610068299        1.28320042075943
H           -1.30218436104756       -1.65453077701343        1.05054554980824
H           -1.08303638004224        2.13407986860401       -0.90748915373045
H           -3.47084721630143        2.40203723204628       -0.67642939579877
H            1.94665022043519       -0.89962489802208        0.57090564036199
H            0.69877966882540        1.24309254532114       -1.79103653762568
H            1.65180361383130        1.27556565565818       -3.66787274027874
H            3.00166572977376        2.31140708455569       -5.43450276226725
H            7.15661098117350        3.35327360555706       -6.30889310201120
H            7.17340400509979        3.53705533909203       -4.53584514563344
H            7.39313853153513        1.92191876866522       -5.27287058682877
H            6.52369053199582        1.79994821324476       -3.06377240274481
H            5.17296166727618        0.76758077734341       -1.30428017934341
