
                                 *****************
                                 * O   R   C   A *
                                 *****************

                                            #,                                       
                                            ###                                      
                                            ####                                     
                                            #####                                    
                                            ######                                   
                                           ########,                                 
                                     ,,################,,,,,                         
                               ,,#################################,,                 
                          ,,##########################################,,             
                       ,#########################################, ''#####,          
                    ,#############################################,,   '####,        
                  ,##################################################,,,,####,       
                ,###########''''           ''''###############################       
              ,#####''   ,,,,##########,,,,          '''####'''          '####       
            ,##' ,,,,###########################,,,                        '##       
           ' ,,###''''                  '''############,,,                           
         ,,##''                                '''############,,,,        ,,,,,,###''
      ,#''                                            '''#######################'''  
     '                                                          ''''####''''         
             ,#######,   #######,   ,#######,      ##                                
            ,#'     '#,  ##    ##  ,#'     '#,    #''#        ,####,    ,#,          
            ##       ##  ##   ,#'  ##            #'  '#       #'       ,# #          
            ##       ##  #######   ##           ,######,      #####,      #          
            '#,     ,#'  ##    ##  '#,     ,#' ,#      #,     #,   #      #          
             '#######'   ##     ##  '#######'  #'      '#     '####' #    #          



                #########################################################
                #                        -***-                          #
                #          Department of theory and spectroscopy        #
                #                                                       #
                #                      Frank Neese                      #
                #                                                       #
                #     Directorship, Architecture, Infrastructure        #
                #                    SHARK, DRIVERS                     #
                #        Core code/Algorithms in most modules           #
                #                                                       #
                #        Max Planck Institute fuer Kohlenforschung      #
                #                Kaiser Wilhelm Platz 1                 #
                #                 D-45470 Muelheim/Ruhr                 #
                #                      Germany                          #
                #                                                       #
                #                  All rights reserved                  #
                #                        -***-                          #
                #########################################################


                         Program Version 6.1.1  -  RELEASE   -


 With contributions from (in alphabetic order):
[Max-Planck-Institut fuer Kohlenforschung]                               
  Daniel Aravena         : Magnetic Suceptibility                        
  Michael Atanasov       : Ab Initio Ligand Field Theory (pilot matlab implementation)
  Alexander A. Auer      : GIAO ZORA, VPT2 properties, NMR spectrum      
  Ute Becker             : All parallelization in ORCA, NUMFREQ, NUMCALC 
  Giovanni Bistoni       : ED, misc. LED, open-shell LED, HFLD           
  Dmytro Bykov           : pre 5.0 version of the SCF Hessian            
  Marcos Casanova-Páez   : Triplet and SCS-CIS(D). UHF-(DLPNO)-IP/EA/STEOM-CCSD. UHF-CVS-IP/STEOM-CCSD   
  Vijay G. Chilkuri      : MRCI spin determinant printing, contributions to CSF-ICE 
  Pauline Colinet        : FMM embedding                                 
  Dipayan Datta          : RHF DLPNO-CCSD density                        
  Achintya Kumar Dutta   : EOM-CC, STEOM-CC                              
  Nicolas Foglia         : Exact transition moments, OPA infrastructure, MCD improvements    
  Dmitry Ganyushin       : Spin-Orbit,Spin-Spin,Magnetic field MRCI      
  Miquel Garcia-Rates    : C-PCM and meta-GGA Hessian, CCSD/C-PCM, Gaussian charge scheme 
  Tiago L. C. Gouveia    : GS-ROHF, GS-ROCIS                             
  Yang Guo               : DLPNO-NEVPT2, F12-NEVPT2, CIM, IAO-localization        
  Andreas Hansen         : Spin unrestricted coupled pair/coupled cluster methods 
  Ingolf Harden          : AUTO-CI MPn and infrastructure                
  Benjamin Helmich-Paris : MC-RPA, TRAH-(SCF,CASSCF), AVAS, COSX integrals, SCF dyn. polar., MC-PDFT, srDFT 
  Lee Huntington         : MR-EOM, pCC                                   
  Robert Izsak           : Overlap fitted RIJCOSX, COSX-SCS-MP3, EOM     
  Riya Kayal             : Wick's Theorem for AUTO-CI, AUTO-CI UHF-CCSDT 
  Emily Kempfer          : AUTO-CI RHF CISDT and CCSDT, approximate NEVPT4
  Christian Kollmar      : KDIIS, OOCD, Brueckner-CCSD(T), CCSD density, CASPT2, CASPT2-K, improved NEVPT2 
  Axel Koslowski         : Symmetry handling                             
  Simone Kossmann        : meta-GGA functionals, TD-DFT gradient, OOMP2, (MP2 Hessian; deprecated post 5.0) 
  Lucas Lang             : DCDCAS, Hyperfine gauge corrections, ICE-SOC+SSC
  Marvin Lechner         : AUTO-CI (C++ implementation), FIC-MRCC        
  Spencer Leger          : CASSCF response                               
  Dagmar Lenk            : GEPOL surface, SMD, ORCA-2-JSON               
  Dimitrios Liakos       : Extrapolation schemes; Compound Job, Property file
  Dimitrios Manganas     : Further ROCIS development; embedding schemes. LFT, Crystal Embedding 
  Dimitrios Pantazis     : SARC Basis sets                               
  Anastasios Papadopoulos: AUTO-CI, single reference methods and gradients 
  Taras Petrenko         : pre 6.0 DFT Hessian and TD-DFT gradient,  ECA, NRVS 
  Petra Pikulova         : Analytic Raman intensities                    
  Peter Pinski           : DLPNO-MP2, DLPNO-MP2 Gradient                 
  Shashank Vittal Rao    : ES-AILFT, MagRelax                            
  Christoph Reimann      : Effective Core Potentials                     
  Marius Retegan         : Local ZFS, SOC                                
  Christoph Riplinger    : Optimizer, TS searches, QM/MM, DLPNO-CCSD(T), (RO)-DLPNO pert. Triples 
  Michael Roemelt        : Original ROCIS implementation, recursive CI coupling coefficients
  Masaaki Saitow         : Open-shell DLPNO-CCSD energy and density      
  Barbara Sandhoefer     : DKH picture change effects                    
  Yorick L. A. Schmerwitz: GMF and freeze-and-release deltaSCF, NEB S-IDPP initial path                    
  Kantharuban Sivalingam : CASSCF convergence/infrastructure, NEVPT2, NEVPT3, NEVPT4(SD), FIC-MRCI and CEPA variants
  Bernardo de Souza      : ESD, SOC TD-DFT                               
  Georgi L. Stoychev     : AutoAux, RI-MP2 NMR, DLPNO-MP2 response, X2C  
  Van Anh Tran           : RI-MP2 g-tensors                              
  Willem Van den Heuvel  : Paramagnetic NMR                              
  Zikuan Wang            : NOTCH, Electric field optimization            
  Frank Wennmohs         : Technical directorship and infrastructure     
  Hang Xu                : AUTO-CI-Response properties                   
                                                                         
[FACCTs GmbH]                                                            
  Markus Bursch, Nicolas Foglia, Miquel Garcia-Rates, Ingolf Harden, Hagen Neugebauer, Anastasios Papadopoulos, 
  Christoph Riplinger, Bernardo de Souza, Georgi L. Stoychev                                                    
                                                                 
  APM, various basis sets, CI-OPT, improved COSX, DLPNO-Multilevel,           
  DOCKER, DRACO, updates on ESD, Fragmentator, GOAT, IRC, LR-CPCM, L-BFGS, MBIS, meta-GGA TD-DFT gradient, ML-optimized integration grids, 
  MM, NACMEs, nearIR, NEB, NEB-TS, NL-DFT gradient (VV10), 2- and 3-layer-ONIOM, interface openCOSMO-RS, QMMM,   
  Crystal-QMMM, RESP, rigid body optimization, SF, symmetry and pop. for TD-DFT, various functionals, SOLVATOR                                   
                                                                         
[Other institutions]                                                     
  V. Asgeirsson          : NEB                                           
  Christoph Bannwarth    : sTDA-DFT, sTD-DFT, PBEh-3c, B97-3c, D3        
  Giovanni Bistoni       : ETS/NOCV, ADLD/ADEX, COVALED                  
  Martin Brehm           : Molecular dynamics                            
  Ronald Cardenas        : ETS/NOCV                                      
  Martina Colucci        : COVALED                                       
  Sebastian Ehlert       : rSCAN, r2SCAN, r2SCAN-3c, D4, dhf basis sets  
  Marvin Friede          : D4 for Fr, Ra, Ac-Lr                          
  Lars Goerigk           : TD-DFT with DH, B97 family of functionals     
  Stefan Grimme          : VdW corrections, initial TS optimization, DFT functionals, gCP, sTDA/sTD-DF 
  Waldemar Hujo          : DFT-NL                                        
  H. Jonsson             : NEB                                           
  Holger Kruse           : gCP                                           
  Marcel Mueller         : wB97X-3c, vDZP basis set                      
  Hagen Neugebauer       : wr2SCAN, Native XTB                           
  Gianluca Regni         : ADLD/ADEX                                     
  Tobias Risthaus        : pre 6.0 range-separated hybrid DFT and stability analysis
  Lukas Wittmann         : regularized MP2, r2SCAN double-hybrids, wr2SCAN        
                                                                         
We gratefully acknowledge several colleagues who have allowed us to      
interface, adapt or use parts of their codes:                            
  Ed Valeev, F. Pavosevic, A. Kumar             : LibInt (2-el integral package), F12 methods 
  Garnet Chan, S. Sharma, J. Yang, R. Olivares  : DMRG                   
  Ulf Ekstrom                                   : XCFun DFT Library      
  Mihaly Kallay                                 : mrcc  (arbitrary order and MRCC methods)
  Frank Weinhold                                : gennbo (NPA and NBO analysis)           
  Simon Mueller                                 : openCOSMO-RS                            
  Christopher J. Cramer and Donald G. Truhlar   : smd solvation model                     
  S Lehtola, MJT Oliveira, MAL Marques          : LibXC Library                           
  Liviu Ungur et al                             : ANISO software                          


 Your calculation uses the libint2 library for the computation of 2-el integrals
 For citations please refer to: http://libint.valeyev.net

 Your ORCA version has been built with support for libXC version: 7.0.0
 For citations please refer to: https://libxc.gitlab.io

 This ORCA versions uses:
   CBLAS   interface :  Fast vector & matrix operations
   LAPACKE interface :  Fast linear algebra routines
   Shared memory     :  Shared parallel matrices


  ***********************************
  * Starting time: Wed Jul 22 10:28:56 2026
  * Host name:     DESKTOP-19Q153E
  * Process ID:    16880
  * Working dir.:  C:\Users\ysm04\Documents\etc\uv_vis\calculations\02_tddft_orca\enolB\enolB_c000\camb3lyp_def2svp\ethanol\dftopt22
  ***********************************

NOTE: MaxCore=2500 MB was set to SCF,MP2,MDCI,CIPSI,MRCI,RASCI and CIS
      => If you want to overwrite this, your respective input block should be placed after the MaxCore statement
XCFun DFT library Copyright 2009-2010 Ulf Ekstrom and contributors.
See http://admol.org/xcfun for more information.
This is free software; see the source code for copying conditions.
There is ABSOLUTELY NO WARRANTY; not even for MERCHANTABILITY or FITNESS FOR A PARTICULAR PURPOSE.
For details see the documentation.
Scientific users of this library should cite U. Ekstrom, L. Visscher, R. Bast, A. J. Thorvaldsen and K. Ruud;
J.Chem.Theor.Comp. 2010, DOI: 10.1021/ct100117s
XCFun Version 0.99 

================================================================================

----- Orbital basis set information -----
Your calculation utilizes the basis: def2-SVP
   F. Weigend and R. Ahlrichs, Phys. Chem. Chem. Phys. 7, 3297 (2005).

----- AuxJ basis set information -----
Your calculation utilizes the auxiliary basis: def2/J
   H-Rn: F. Weigend, Phys. Chem. Chem. Phys. 8, 1057 (2006).
   Fr-Lr: K. Eichkorn, F. Weigend, O. Treutler, R. Ahlrichs; Theor. Chem. Acc. 97, 119 (1997).

================================================================================
                                        WARNINGS
                       Please study these warnings very carefully!
================================================================================


WARNING: CIS/ROCIS methods need fully converged wavefunctions
  ===> : Setting SCFConvForced true
         You can overwrite this default with %scf ConvForced false 


================================================================================
                                       INPUT FILE
================================================================================
NAME = td.inp
|  1> # enolB / enolB_c000 / camb3lyp_def2svp / solvent=ethanol
|  2> ! CAM-B3LYP def2-SVP RIJCOSX def2/J TightSCF CPCM(Ethanol)
|  3> %pal nprocs 4 end
|  4> %maxcore 2500
|  5> %scf
|  6>   MaxIter 300
|  7> end
|  8> %tddft
|  9>   nroots 22
| 10>   tda    true
| 11>   maxdim 5
| 12> end
| 13> * xyz 0 1
| 14> C      8.6029047610     0.3946286797    -1.3211171061
| 15> O      7.3002552672     0.5791544019    -1.8609253365
| 16> C      6.2194253327     0.3388823598    -1.0919827419
| 17> C      6.2718852189    -0.0941049621     0.2453994767
| 18> C      5.0862660649    -0.3111423331     0.9477194495
| 19> C      3.8264348701    -0.1088949742     0.3533620313
| 20> C      3.7922764384     0.3253887526    -0.9917041617
| 21> C      4.9631148637     0.5454868799    -1.7010929868
| 22> C      2.6035599003    -0.3517272891     1.1392065429
| 23> O      2.8008264536    -0.7458162449     2.3862660789
| 24> C      1.3102974701    -0.1938427190     0.6537151369
| 25> C      0.1840128949    -0.4593591976     1.5041707958
| 26> O      0.3502920622    -0.8381374375     2.6981795308
| 27> C     -1.2135460400    -0.2984868342     0.9987740294
| 28> C     -1.5261565897     0.1543845112    -0.2936260151
| 29> C     -2.8548753066     0.2828088934    -0.7085302292
| 30> C     -3.9275787622    -0.0346195232     0.1431193246
| 31> C     -5.4014507476     0.0935653230    -0.2843200284
| 32> C     -6.0879091643    -1.2889651079    -0.1736772905
| 33> C     -6.1179461430     1.0975641075     0.6501775392
| 34> C     -5.5480990988     0.5903074716    -1.7342328748
| 35> C     -3.6034565258    -0.4865965988     1.4401043086
| 36> C     -2.2826621565    -0.6151229115     1.8591162610
| 37> H      8.7778324617     1.0581530718    -0.4573938451
| 38> H      8.7656729357    -0.6519801927    -1.0128331962
| 39> H      9.3076787891     0.6499786416    -2.1230689396
| 40> H      7.2261212201    -0.2634533972     0.7447961579
| 41> H      5.1356904985    -0.6465492554     1.9846328135
| 42> H      2.8393879652     0.4958326063    -1.4957659999
| 43> H      4.9362727356     0.8815672321    -2.7401348740
| 44> H      1.8614298432    -0.8672217861     2.7790771668
| 45> H      1.1599898814     0.1249365988    -0.3726689426
| 46> H     -0.7364909139     0.4182244406    -0.9992371138
| 47> H     -3.0429282612     0.6396788481    -1.7214116767
| 48> H     -5.6001511980    -2.0260654653    -0.8324125471
| 49> H     -6.0606823386    -1.6808269307     0.8548247017
| 50> H     -7.1456931820    -1.2107398840    -0.4747693273
| 51> H     -7.1763455961     1.1978943234     0.3578614300
| 52> H     -6.0898800888     0.7712601765     1.7013702801
| 53> H     -5.6518158747     2.0946873083     0.5904748489
| 54> H     -5.0755850971    -0.0975578220    -2.4534471142
| 55> H     -6.6166454636     0.6597317731    -1.9929582118
| 56> H     -5.1064302887     1.5897659024    -1.8748230872
| 57> H     -4.3995330856    -0.7458956560     2.1422933363
| 58> H     -2.0557660358    -0.9667757912     2.8672670755
| 59> *
| 60> 
| 61>                          ****END OF INPUT****
================================================================================

                       ****************************
                       * Single Point Calculation *
                       ****************************

---------------------------------
CARTESIAN COORDINATES (ANGSTROEM)
---------------------------------
  C      8.602905    0.394629   -1.321117
  O      7.300255    0.579154   -1.860925
  C      6.219425    0.338882   -1.091983
  C      6.271885   -0.094105    0.245399
  C      5.086266   -0.311142    0.947719
  C      3.826435   -0.108895    0.353362
  C      3.792276    0.325389   -0.991704
  C      4.963115    0.545487   -1.701093
  C      2.603560   -0.351727    1.139207
  O      2.800826   -0.745816    2.386266
  C      1.310297   -0.193843    0.653715
  C      0.184013   -0.459359    1.504171
  O      0.350292   -0.838137    2.698180
  C     -1.213546   -0.298487    0.998774
  C     -1.526157    0.154385   -0.293626
  C     -2.854875    0.282809   -0.708530
  C     -3.927579   -0.034620    0.143119
  C     -5.401451    0.093565   -0.284320
  C     -6.087909   -1.288965   -0.173677
  C     -6.117946    1.097564    0.650178
  C     -5.548099    0.590307   -1.734233
  C     -3.603457   -0.486597    1.440104
  C     -2.282662   -0.615123    1.859116
  H      8.777832    1.058153   -0.457394
  H      8.765673   -0.651980   -1.012833
  H      9.307679    0.649979   -2.123069
  H      7.226121   -0.263453    0.744796
  H      5.135690   -0.646549    1.984633
  H      2.839388    0.495833   -1.495766
  H      4.936273    0.881567   -2.740135
  H      1.861430   -0.867222    2.779077
  H      1.159990    0.124937   -0.372669
  H     -0.736491    0.418224   -0.999237
  H     -3.042928    0.639679   -1.721412
  H     -5.600151   -2.026065   -0.832413
  H     -6.060682   -1.680827    0.854825
  H     -7.145693   -1.210740   -0.474769
  H     -7.176346    1.197894    0.357861
  H     -6.089880    0.771260    1.701370
  H     -5.651816    2.094687    0.590475
  H     -5.075585   -0.097558   -2.453447
  H     -6.616645    0.659732   -1.992958
  H     -5.106430    1.589766   -1.874823
  H     -4.399533   -0.745896    2.142293
  H     -2.055766   -0.966776    2.867267

----------------------------
CARTESIAN COORDINATES (A.U.)
----------------------------
  NO LB      ZA    FRAG     MASS         X           Y           Z
   0 C     6.0000    0    12.011   16.257134    0.745740   -2.496550
   1 O     8.0000    0    15.999   13.795483    1.094443   -3.516639
   2 C     6.0000    0    12.011   11.753011    0.640395   -2.063548
   3 C     6.0000    0    12.011   11.852145   -0.177833    0.463738
   4 C     6.0000    0    12.011    9.611650   -0.587974    1.790930
   5 C     6.0000    0    12.011    7.230914   -0.205782    0.667757
   6 C     6.0000    0    12.011    7.166364    0.614896   -1.874049
   7 C     6.0000    0    12.011    9.378928    1.030821   -3.214600
   8 C     6.0000    0    12.011    4.920015   -0.664668    2.152788
   9 O     8.0000    0    15.999    5.292795   -1.409388    4.509389
  10 C     6.0000    0    12.011    2.476103   -0.366310    1.235343
  11 C     6.0000    0    12.011    0.347734   -0.868063    2.842471
  12 O     8.0000    0    15.999    0.661956   -1.583850    5.098820
  13 C     6.0000    0    12.011   -2.293270   -0.564058    1.887409
  14 C     6.0000    0    12.011   -2.884018    0.291744   -0.554873
  15 C     6.0000    0    12.011   -5.394932    0.534431   -1.338928
  16 C     6.0000    0    12.011   -7.422048   -0.065421    0.270456
  17 C     6.0000    0    12.011  -10.207263    0.176813   -0.537287
  18 C     6.0000    0    12.011  -11.504481   -2.435791   -0.328203
  19 C     6.0000    0    12.011  -11.561243    2.074096    1.228657
  20 C     6.0000    0    12.011  -10.484388    1.115519   -3.277225
  21 C     6.0000    0    12.011   -6.809546   -0.919534    2.721403
  22 C     6.0000    0    12.011   -4.313606   -1.162414    3.513221
  23 H     1.0000    0     1.008   16.587699    1.999620   -0.864349
  24 H     1.0000    0     1.008   16.564721   -1.232064   -1.913977
  25 H     1.0000    0     1.008   17.588964    1.228282   -4.012019
  26 H     1.0000    0     1.008   13.655390   -0.497855    1.407461
  27 H     1.0000    0     1.008    9.705049   -1.221801    3.750412
  28 H     1.0000    0     1.008    5.365666    0.936988   -2.826588
  29 H     1.0000    0     1.008    9.328204    1.665921   -5.178104
  30 H     1.0000    0     1.008    3.517593   -1.638812    5.251695
  31 H     1.0000    0     1.008    2.192063    0.236096   -0.704242
  32 H     1.0000    0     1.008   -1.391766    0.790330   -1.888284
  33 H     1.0000    0     1.008   -5.750301    1.208818   -3.252997
  34 H     1.0000    0     1.008  -10.582752   -3.828709   -1.573032
  35 H     1.0000    0     1.008  -11.453030   -3.176303    1.615385
  36 H     1.0000    0     1.008  -13.503403   -2.287967   -0.897184
  37 H     1.0000    0     1.008  -13.561328    2.263692    0.676260
  38 H     1.0000    0     1.008  -11.508206    1.457471    3.215124
  39 H     1.0000    0     1.008  -10.680384    3.958385    1.115836
  40 H     1.0000    0     1.008   -9.591466   -0.184358   -4.636343
  41 H     1.0000    0     1.008  -12.503648    1.246712   -3.766145
  42 H     1.0000    0     1.008   -9.649755    3.004222   -3.542902
  43 H     1.0000    0     1.008   -8.313913   -1.409539    4.048348
  44 H     1.0000    0     1.008   -3.884835   -1.826941    5.418350

--------------------------------
INTERNAL COORDINATES (ANGSTROEM)
--------------------------------
 C      0   0   0     0.000000000000     0.00000000     0.00000000
 O      1   0   0     1.422089438628     0.00000000     0.00000000
 C      2   1   0     1.348034389515   119.65589066     0.00000000
 C      3   2   1     1.406705818291   124.55998120     0.00000000
 C      4   3   2     1.395009441881   119.65883397   179.96101468
 C      5   4   3     1.407600573367   121.71821545     0.03292513
 C      6   5   4     1.413850139644   117.86979193     0.00000000
 C      7   6   5     1.386556276888   121.00321134   359.95695184
 C      6   5   4     1.473751105626   119.59276372   180.03692931
 O      9   6   5     1.322640421454   115.34669233     0.43112320
 C      9   6   5     1.390380219991   124.53493759   180.45543041
 C     11   9   6     1.436067816120   120.11376762   179.91368222
 O     12  11   9     1.263637042729   120.78374098     0.00000000
 C     12  11   9     1.494816639362   120.87262459   180.15551335
 C     14  12  11     1.404676363541   123.63100133   357.83294622
 C     15  14  12     1.397902628033   120.94637547   179.93982107
 C     16  15  14     1.405973138367   121.64634200   359.93939324
 C     17  16  15     1.539946227839   122.90851067   180.10992946
 C     18  17  16     1.547532670309   109.28942401   120.65047137
 C     18  17  16     1.547470489139   109.24029831   240.23189292
 C     18  17  16     1.539644687342   112.29703135     0.49865351
 C     17  16  15     1.411208187943   116.98664841     0.15931478
 C     22  17  16     1.391613378523   121.62086360   359.90718368
 H      1   2   3     1.103123833020   111.37175887   299.02009780
 H      1   2   3     1.103142139339   111.36719985    61.15068088
 H      1   2   3     1.097741671333   106.29654279   180.07838695
 H      4   3   2     1.090248725590   121.05999863     0.00000000
 H      5   4   3     1.090930750600   119.19951616   180.02152441
 H      7   6   5     1.091387138623   120.56059425   179.99318919
 H      8   7   6     1.092372897106   120.97935307   180.03491860
 H     10   9   6     1.025429591850   105.05958269   180.07531438
 H     11   9   6     1.085208230400   119.50104016     0.29445565
 H     15  14  12     1.091361723028   120.78227926   359.74831780
 H     16  15  14     1.090251762205   118.01888538   179.93497982
 H     19  18  17     1.102341557257   111.00037865   299.33262292
 H     19  18  17     1.100960188274   111.95006217    60.12414933
 H     19  18  17     1.102579987293   110.03862320   179.85783827
 H     20  18  17     1.102598867332   110.08338810   180.15659754
 H     20  18  17     1.101030488817   111.86803615   299.90235359
 H     20  18  17     1.102314163852   111.00124887    60.61527426
 H     21  18  17     1.101679293668   111.86916699    60.51724057
 H     21  18  17     1.101612394344   109.50532883   179.69146394
 H     21  18  17     1.101705087823   112.00459387   298.92610144
 H     22  17  16     1.092722892938   119.95153077   179.94275755
 H     23  22  17     1.091562944666   120.33987609   179.99824006

---------------------------
INTERNAL COORDINATES (A.U.)
---------------------------
 C      0   0   0     0.000000000000     0.00000000     0.00000000
 O      1   0   0     2.687359576949     0.00000000     0.00000000
 C      2   1   0     2.547415815292   119.65589066     0.00000000
 C      3   2   1     2.658288747564   124.55998120     0.00000000
 C      4   3   2     2.636185799389   119.65883397   179.96101468
 C      5   4   3     2.659979589614   121.71821545     0.03292513
 C      6   5   4     2.671789558333   117.86979193     0.00000000
 C      7   6   5     2.620211632587   121.00321134   359.95695184
 C      6   5   4     2.784985979197   119.59276372   180.03692931
 O      9   6   5     2.499428170201   115.34669233     0.43112320
 C      9   6   5     2.627437837804   124.53493759   180.45543041
 C     11   9   6     2.713774882206   120.11376762   179.91368222
 O     12  11   9     2.387927943435   120.78374098     0.00000000
 C     12  11   9     2.824794068822   120.87262459   180.15551335
 C     14  12  11     2.654453633886   123.63100133   357.83294622
 C     15  14  12     2.641653128871   120.94637547   179.93982107
 C     16  15  14     2.656904183163   121.64634200   359.93939324
 C     17  16  15     2.910076631581   122.90851067   180.10992946
 C     18  17  16     2.924412930179   109.28942401   120.65047137
 C     18  17  16     2.924295424799   109.24029831   240.23189292
 C     18  17  16     2.909506802624   112.29703135     0.49865351
 C     17  16  15     2.666796993160   116.98664841     0.15931478
 C     22  17  16     2.629768169710   121.62086360   359.90718368
 H      1   2   3     2.084601936209   111.37175887   299.02009780
 H      1   2   3     2.084636530138   111.36719985    61.15068088
 H      1   2   3     2.074431124612   106.29654279   180.07838695
 H      4   3   2     2.060271509222   121.05999863     0.00000000
 H      5   4   3     2.061560349708   119.19951616   180.02152441
 H      7   6   5     2.062422798081   120.56059425   179.99318919
 H      8   7   6     2.064285611649   120.97935307   180.03491860
 H     10   9   6     1.937781098216   105.05958269   180.07531438
 H     11   9   6     2.050746353734   119.50104016     0.29445565
 H     15  14  12     2.062374769568   120.78227926   359.74831780
 H     16  15  14     2.060277247592   118.01888538   179.93497982
 H     19  18  17     2.083123649256   111.00037865   299.33262292
 H     19  18  17     2.080513240189   111.95006217    60.12414933
 H     19  18  17     2.083574216727   110.03862320   179.85783827
 H     20  18  17     2.083609894830   110.08338810   180.15659754
 H     20  18  17     2.080646088962   111.86803615   299.90235359
 H     20  18  17     2.083071883222   111.00124887    60.61527426
 H     21  18  17     2.081872152445   111.86916699    60.51724057
 H     21  18  17     2.081745731043   109.50532883   179.69146394
 H     21  18  17     2.081920896333   112.00459387   298.92610144
 H     22  17  16     2.064947007918   119.95153077   179.94275755
 H     23  22  17     2.062755023355   120.33987609   179.99824006

---------------------
BASIS SET INFORMATION
---------------------
There are 3 groups of distinct atoms

 Group   1 Type C   : 7s4p1d contracted to 3s2p1d pattern {511/31/1}
 Group   2 Type O   : 7s4p1d contracted to 3s2p1d pattern {511/31/1}
 Group   3 Type H   : 4s1p contracted to 2s1p pattern {31/1}

Atom   0C    basis set group =>   1
Atom   1O    basis set group =>   2
Atom   2C    basis set group =>   1
Atom   3C    basis set group =>   1
Atom   4C    basis set group =>   1
Atom   5C    basis set group =>   1
Atom   6C    basis set group =>   1
Atom   7C    basis set group =>   1
Atom   8C    basis set group =>   1
Atom   9O    basis set group =>   2
Atom  10C    basis set group =>   1
Atom  11C    basis set group =>   1
Atom  12O    basis set group =>   2
Atom  13C    basis set group =>   1
Atom  14C    basis set group =>   1
Atom  15C    basis set group =>   1
Atom  16C    basis set group =>   1
Atom  17C    basis set group =>   1
Atom  18C    basis set group =>   1
Atom  19C    basis set group =>   1
Atom  20C    basis set group =>   1
Atom  21C    basis set group =>   1
Atom  22C    basis set group =>   1
Atom  23H    basis set group =>   3
Atom  24H    basis set group =>   3
Atom  25H    basis set group =>   3
Atom  26H    basis set group =>   3
Atom  27H    basis set group =>   3
Atom  28H    basis set group =>   3
Atom  29H    basis set group =>   3
Atom  30H    basis set group =>   3
Atom  31H    basis set group =>   3
Atom  32H    basis set group =>   3
Atom  33H    basis set group =>   3
Atom  34H    basis set group =>   3
Atom  35H    basis set group =>   3
Atom  36H    basis set group =>   3
Atom  37H    basis set group =>   3
Atom  38H    basis set group =>   3
Atom  39H    basis set group =>   3
Atom  40H    basis set group =>   3
Atom  41H    basis set group =>   3
Atom  42H    basis set group =>   3
Atom  43H    basis set group =>   3
Atom  44H    basis set group =>   3
---------------------------------
AUXILIARY/J BASIS SET INFORMATION
---------------------------------
There are 3 groups of distinct atoms

 Group   1 Type C   : 12s5p4d2f1g contracted to 6s4p3d1f1g pattern {711111/2111/211/2/1}
 Group   2 Type O   : 12s5p4d2f1g contracted to 6s4p3d1f1g pattern {711111/2111/211/2/1}
 Group   3 Type H   : 5s2p1d contracted to 3s1p1d pattern {311/2/1}

Atom   0C    basis set group =>   1
Atom   1O    basis set group =>   2
Atom   2C    basis set group =>   1
Atom   3C    basis set group =>   1
Atom   4C    basis set group =>   1
Atom   5C    basis set group =>   1
Atom   6C    basis set group =>   1
Atom   7C    basis set group =>   1
Atom   8C    basis set group =>   1
Atom   9O    basis set group =>   2
Atom  10C    basis set group =>   1
Atom  11C    basis set group =>   1
Atom  12O    basis set group =>   2
Atom  13C    basis set group =>   1
Atom  14C    basis set group =>   1
Atom  15C    basis set group =>   1
Atom  16C    basis set group =>   1
Atom  17C    basis set group =>   1
Atom  18C    basis set group =>   1
Atom  19C    basis set group =>   1
Atom  20C    basis set group =>   1
Atom  21C    basis set group =>   1
Atom  22C    basis set group =>   1
Atom  23H    basis set group =>   3
Atom  24H    basis set group =>   3
Atom  25H    basis set group =>   3
Atom  26H    basis set group =>   3
Atom  27H    basis set group =>   3
Atom  28H    basis set group =>   3
Atom  29H    basis set group =>   3
Atom  30H    basis set group =>   3
Atom  31H    basis set group =>   3
Atom  32H    basis set group =>   3
Atom  33H    basis set group =>   3
Atom  34H    basis set group =>   3
Atom  35H    basis set group =>   3
Atom  36H    basis set group =>   3
Atom  37H    basis set group =>   3
Atom  38H    basis set group =>   3
Atom  39H    basis set group =>   3
Atom  40H    basis set group =>   3
Atom  41H    basis set group =>   3
Atom  42H    basis set group =>   3
Atom  43H    basis set group =>   3
Atom  44H    basis set group =>   3


           ************************************************************
           *        Program running with 4 parallel MPI-processes     *
           *              working on a common directory               *
           ************************************************************
------------------------------------------------------------------------------
                             ORCA STARTUP CALCULATIONS
                           -- RI-GTO INTEGRALS CHOSEN --
------------------------------------------------------------------------------
------------------------------------------------------------------------------
                   ___                                                        
                  /   \      - P O W E R E D   B Y -                         
                 /     \                                                     
                 |  |  |   _    _      __       _____    __    __             
                 |  |  |  | |  | |    /  \     |  _  \  |  |  /  |          
                  \  \/   | |  | |   /    \    | | | |  |  | /  /          
                 / \  \   | |__| |  /  /\  \   | |_| |  |  |/  /          
                |  |  |   |  __  | /  /__\  \  |    /   |      \           
                |  |  |   | |  | | |   __   |  |    \   |  |\   \          
                \     /   | |  | | |  |  |  |  | |\  \  |  | \   \       
                 \___/    |_|  |_| |__|  |__|  |_| \__\ |__|  \__/        
                                                                              
                      - O R C A' S   B I G   F R I E N D -                    
                                      &                                       
                       - I N T E G R A L  F E E D E R -                       
                                                                              
 v1 FN, 2020, v2 2021, v3 2022-2024                                           
------------------------------------------------------------------------------


----------------------
SHARK INTEGRAL PACKAGE
----------------------

Number of atoms                             ...     45
Number of basis functions                   ...    432
Number of shells                            ...    204
Maximum angular momentum                    ...      2
Integral batch strategy                     ... SHARK/LIBINT Hybrid
RI-J (if used) integral strategy            ... SPLIT-RIJ (Revised 2003 algorithm where possible)
Printlevel                                  ...      1
Contraction scheme used                     ... SEGMENTED contraction
Prescreening option                         ... SCHWARTZ
   Thresh                                   ... 2.500e-11
   Tcut                                     ... 2.500e-12
   Tpresel                                  ... 2.500e-12 
Coulomb Range Separation                    ... NOT USED
Exchange Range Separation                   ... Long Range
   Mu parameter                             ... 3.300e-01
   Scaling (regular/separated)              ... 1.900e-01 4.600e-01
Robust (split-)RI terms used:
  metric    (central integrals)             ... YES
  density   (r.h.s.  integrals)             ... YES
  potential (l.h.s.  integrals)             ... YES
Multipole approximations                    ... NOT USED
Finite Nucleus Model                        ... NOT USED
CABS basis                                  ... NOT available
Auxiliary Coulomb fitting basis             ... AVAILABLE
   # of basis functions in Aux-J            ...   1369
   # of shells in Aux-J                     ...    455
   Maximum angular momentum in Aux-J        ...      4
Auxiliary J/K fitting basis                 ... NOT available
Auxiliary Correlation fitting basis         ... NOT available
Auxiliary 'external' fitting basis          ... NOT available

Checking pre-screening integrals            ... done (  0.0 sec) Dimension = 204
   => SHARK Basis and OBASIS are compatible. Storing Pre-screening
Shell pair information
Shell pair cut-off parameter TPreSel        ...   2.5e-12
Total number of shell pairs                 ...     20910
Shell pairs after pre-screening             ...     12179
Total number of primitive shell pairs       ...     75056
Primitive shell pairs kept                  ...     28745
          la=0 lb=0:   3841 shell pairs
          la=1 lb=0:   4546 shell pairs
          la=1 lb=1:   1402 shell pairs
          la=2 lb=0:   1411 shell pairs
          la=2 lb=1:    844 shell pairs
          la=2 lb=2:    135 shell pairs

Checking whether 4 symmetric matrices of dimension 432 fit in memory
:Max Core in MB      =   2500.00
 MB in use           =     15.40
 MB left             =   2484.60
 MB needed           =      2.85
 Data fit in memory  = YES
Calculating RI/J V-Matrix + Cholesky decomp.... done (  0.6 sec)
Calculating Nuclear repulsion               ... done (  0.0 sec) ENN=   1725.879379378557 Eh

Diagonalization of the overlap matrix:
Smallest eigenvalue                        ... 2.690e-04
Time for diagonalization                   ...    0.100 sec
Threshold for overlap eigenvalues          ... 1.000e-07
Number of eigenvalues below threshold      ... 0
Time for construction of square roots      ...    0.313 sec
Total time needed                          ...    0.427 sec

-------------------
DFT GRID GENERATION
-------------------

General Integration Accuracy     IntAcc      ... 4.388
Radial Grid Type                 RadialGrid  ... OptM3 with GC (2021)
Angular Grid (max. ang.)         AngularGrid ... 4 (Lebedev-302)
Angular grid pruning method      GridPruning ... 4 (adaptive)
Weight generation scheme         WeightScheme... mBecke (2022)
Basis function cutoff            BFCut       ... 1.0000e-11
Integration weight cutoff        WCut        ... 1.0000e-14
Partially contracted basis set               ... off
Rotationally invariant grid construction     ... off
Angular grids for H and He will be reduced by one unit

Total number of grid points                  ...   207653
Total number of batches                      ...     3269
Average number of points per batch           ...       63
Average number of grid points per atom       ...     4615

--------------------
COSX GRID GENERATION
--------------------

GRIDX 1
-------
General Integration Accuracy     IntAcc      ... 3.816
Radial Grid Type                 RadialGrid  ... OptM3 with GC (2021)
Angular Grid (max. ang.)         AngularGrid ... 1 (Lebedev-50)
Angular grid pruning method      GridPruning ... 4 (adaptive)
Weight generation scheme         WeightScheme... mBecke (2022)
Basis function cutoff            BFCut       ... 1.0000e-11
Integration weight cutoff        WCut        ... 1.0000e-14
Partially contracted basis set               ... on
Rotationally invariant grid construction     ... off
Angular grids for H and He will be reduced by one unit

Total number of grid points                  ...    26503
Total number of batches                      ...      234
Average number of points per batch           ...      113
Average number of grid points per atom       ...      589
UseSFitting                                  ... on

GRIDX 2
-------
General Integration Accuracy     IntAcc      ... 4.020
Radial Grid Type                 RadialGrid  ... OptM3 with GC (2021)
Angular Grid (max. ang.)         AngularGrid ... 2 (Lebedev-110)
Angular grid pruning method      GridPruning ... 4 (adaptive)
Weight generation scheme         WeightScheme... mBecke (2022)
Basis function cutoff            BFCut       ... 1.0000e-11
Integration weight cutoff        WCut        ... 1.0000e-14
Partially contracted basis set               ... on
Rotationally invariant grid construction     ... off
Angular grids for H and He will be reduced by one unit

Total number of grid points                  ...    56823
Total number of batches                      ...      467
Average number of points per batch           ...      121
Average number of grid points per atom       ...     1263
UseSFitting                                  ... on

GRIDX 3
-------
General Integration Accuracy     IntAcc      ... 4.338
Radial Grid Type                 RadialGrid  ... OptM3 with GC (2021)
Angular Grid (max. ang.)         AngularGrid ... 3 (Lebedev-194)
Angular grid pruning method      GridPruning ... 4 (adaptive)
Weight generation scheme         WeightScheme... mBecke (2022)
Basis function cutoff            BFCut       ... 1.0000e-11
Integration weight cutoff        WCut        ... 1.0000e-14
Partially contracted basis set               ... on
Rotationally invariant grid construction     ... off
Angular grids for H and He will be reduced by one unit

Total number of grid points                  ...   124093
Total number of batches                      ...      991
Average number of points per batch           ...      125
Average number of grid points per atom       ...     2758
UseSFitting                                  ... on
Grids setup in  17.5 sec
Initializing property integral containers    ... done (  0.2 sec)

SHARK setup successfully completed in  19.2 seconds

Maximum memory used throughout the entire STARTUP-calculation: 57.8 MB


           ************************************************************
           *        Program running with 4 parallel MPI-processes     *
           *              working on a common directory               *
           ************************************************************
-------------------------------------------------------------------------------
                                 ORCA GUESS
                   Start orbitals & Density for SCF / CASSCF
-------------------------------------------------------------------------------

------------
SCF SETTINGS
------------
Hamiltonian:
 Density Functional     Method          .... DFT(GTOs)
 Exchange Functional    Exchange        .... WB88
 Correlation Functional Correlation     .... LYP
 LDA part of GGA corr.  LDAOpt          .... VWN-5
 Gradients option       PostSCFGGA      .... off
 Hybrid DFT is turned on
   Fraction HF Exchange ScalHFX         ....  0.190000
   Scaling of DF-GGA-X  ScalDFX         ....  0.350000
   Scaling of DF-GGA-C  ScalDFC         ....  0.810000
   Scaling of DF-LDA-C  ScalLDAC        ....  1.000000
   Perturbative correction              ....  0.000000
 Long-range corrected/Screened/Range-Separated Hybrid DFT is turned on
   Amount of maximum screened exact exchange              ....  0.460000
   Range separation parameter mu (erf(mu*r12)/r12)        ....  0.330000
 RI-approximation to the Coulomb term is turned on
   Number of AuxJ basis functions       .... 1369
   RIJ-COSX (HFX calculated with COS-X)).... on


General Settings:
 Integral files         IntName         .... td
 Hartree-Fock type      HFTyp           .... RHF
 Total Charge           Charge          ....    0
 Multiplicity           Mult            ....    1
 Number of Electrons    NEL             ....  166
 Basis Dimension        Dim             ....  432
 Nuclear Repulsion      ENuc            ....   1725.8793793786 Eh

Convergence Acceleration:
 AO-DIIS                CNVDIIS         .... on
   Start iteration      DIISMaxIt       ....    12
   Startup error        DIISStart       ....  0.200000
   # of expansion vecs  DIISMaxEq       ....     5
   Bias factor          DIISBfac        ....   1.050
   Max. coefficient     DIISMaxC        ....  10.000
 MO-DIIS                CNVKDIIS        .... off
 Trust-Rad. Augm. Hess. CNVTRAH         .... auto
   Auto Start mean grad. ratio tolernc. ....  1.125000
   Auto Start start iteration           ....    50
   Auto Start num. interpolation iter.  ....    10
   Max. Number of Micro iterations      ....    24
   Max. Number of Macro iterations      .... Maxiter - #DIIS iter
   Number of Davidson start vectors     ....     2
   Converg. threshold    (grad. norm)   ....   1.000e-05
   Grad. Scal. Fac. for Micro threshold ....   0.100
   Minimum threshold for Micro iter.    ....   1.000e-02
   NR start threshold (gradient norm)   ....   1.000e-04
   Initial trust radius                 ....   0.400
   Minimum AH scaling param. (alpha)    ....   1.000
   Maximum AH scaling param. (alpha)    .... 1000.000
   Quad. conv. algorithm                .... NR
   White noise on init. David. guess    .... on
   Maximum white noise                  ....   0.010
   Pseudo random numbers                .... off
   Inactive MOs                         .... canonical
   Orbital update algorithm             .... Taylor
   Preconditioner                       .... Diag
   Full preconditioner red. dimension   ....   250
 SOSCF                 CNVSOSCF           .... on
   Start iteration     SOSCFMaxIt         ....   150
   Startup grad/error  SOSCFStart         ....  0.003300
   Hessian update      SOSCFHessUp        .... L-BFGS
   Autom. constraints  SOSCFAutoConstrain .... off
 Level Shifting         CNVShift        .... on
   Level shift para.    LevelShift      ....    0.2500
   Turn off err/grad.   ShiftErr        ....    0.0010
 Zerner damping         CNVZerner       .... off
 Static damping         CNVDamp         .... on
   Fraction old density DampFac         ....    0.7000
   Max. Damping (<1)    DampMax         ....    0.9800
   Min. Damping (>=0)   DampMin         ....    0.0000
   Turn off err/grad.   DampErr         ....    0.1000

SCF Procedure:
 Maximum # iterations   MaxIter         ....   300
 SCF integral mode      SCFMode         .... Direct
   Integral package                     .... SHARK and LIBINT hybrid scheme
 Reset frequency        DirectResetFreq ....    20
 Integral Threshold     Thresh          ....  2.500e-11 Eh
 Primitive CutOff       TCut            ....  2.500e-12 Eh

Convergence Tolerance:
 Convergence Check Mode ConvCheckMode   .... Total+1el-Energy
 Convergence forced     ConvForced      .... 1
 Energy Change          TolE            ....  1.000e-08 Eh
 1-El. energy change                    ....  1.000e-05 Eh
 Orbital Gradient       TolG            ....  1.000e-05
 Orbital Rotation angle TolX            ....  1.000e-05
 DIIS Error             TolErr          ....  5.000e-07

------------------------------
INITIAL GUESS: MODEL POTENTIAL
------------------------------
Loading Hartree-Fock densities                     ... done
Calculating cut-offs                               ... done
Initializing the effective Hamiltonian             ... done
Setting up the integral package (SHARK)            ... done
Starting the Coulomb interaction                   ... done (   1.0 sec)
Making the grid                                    ... done (   1.5 sec)
Mapping shells                                     ... done
Starting the XC term evaluation                    ... done (   1.1 sec)
  promolecular density results
     # of electrons  =    165.990584059
     EX              =   -133.220254070
     EC              =     -5.542358700
     EX+EC           =   -138.762612770
Transforming the Hamiltonian                       ... done (   0.0 sec)
Diagonalizing the Hamiltonian                      ... done (   0.1 sec)
Back transforming the eigenvectors                 ... done (   0.0 sec)
Now organizing SCF variables                       ... done
                      ------------------
                      INITIAL GUESS DONE (   3.9 sec)
                      ------------------
             **** ENERGY FILE WAS UPDATED (td.en.tmp) ****
Finished Guess after   4.4 sec
Maximum memory used throughout the entire GUESS-calculation: 21.7 MB


           ************************************************************
           *        Program running with 4 parallel MPI-processes     *
           *              working on a common directory               *
           ************************************************************

-------------------------------------------------------------------------------------------
                                      ORCA LEAN-SCF
                              memory conserving SCF solver
-------------------------------------------------------------------------------------------

--------------------
CPCM SOLVATION MODEL
--------------------
CPCM parameters:
  Epsilon                                         ...      25.4510
  Refrac                                          ...       1.3611
  Rsolv                                           ...       1.3000
  Surface type                                    ... GAUSSIAN VDW
  Discretization scheme                           ... Constant charge density
    Threshold for H atoms                         ...       5.0000 (charges/Ang^2)
    Threshold for non-H atoms                     ...       5.0000 (charges/Ang^2)
  Epsilon function type                           ...         CPCM
Solvent:                                          ... ETHANOL
Radii:
  Scheme                                          ... Element-dependent radii
  Radius for C  used is    3.8550 Bohr (=   2.0400 Ang.)
  Radius for O  used is    3.4469 Bohr (=   1.8240 Ang.)
  Radius for H  used is    2.4944 Bohr (=   1.3200 Ang.)
Calculating surface                               ...        done! (  0.0s)
Cavity surface points                             ...         3809
Cavity Volume                                     ...    2635.8057
Cavity Surface-area                               ...    1348.6041
Calculating surface distance matrix               ...        done! (  0.2s)
Performing Cholesky decomposition & store         ...        done! (  1.3s)
Overall time for CPCM initialization              ...                 1.6s

----------------------------------------D-I-I-S--------------------------------------------
Iteration    Energy (Eh)           Delta-E    RMSDP     MaxDP     DIISErr   Damp  Time(sec)
-------------------------------------------------------------------------------------------
               ***  Starting incremental Fock matrix formation  ***
    1    -999.4021676470622424     0.00e+00  3.36e-03  6.70e-02  2.10e-01  0.700  38.8
    2    -999.5772071966573549    -1.75e-01  2.47e-03  4.32e-02  9.94e-02  0.700  13.6
                               ***Turning on AO-DIIS***
    3    -999.6631896571427660    -8.60e-02  1.22e-03  1.76e-02  4.31e-02  0.700  13.3
    4    -999.7141602283793418    -5.10e-02  2.46e-03  2.99e-02  2.80e-02  0.000  13.4
    5    -999.8232513981499778    -1.09e-01  2.44e-04  6.22e-03  4.70e-03  0.000  14.3
    6    -999.8235562976617530    -3.05e-04  1.10e-04  2.78e-03  3.85e-03  0.000  12.3
                              *** Initializing SOSCF ***
---------------------------------------S-O-S-C-F--------------------------------------
Iteration    Energy (Eh)           Delta-E    RMSDP     MaxDP     MaxGrad    Time(sec)
--------------------------------------------------------------------------------------
    7    -999.8236203078074595    -6.40e-05  5.65e-05  1.42e-03  8.69e-04    13.3
               *** Restarting incremental Fock matrix formation ***
    8    -999.8235063501053901     1.14e-04  6.22e-05  1.02e-03  8.10e-04    24.9
    9    -999.8235189225022168    -1.26e-05  5.87e-05  1.46e-03  3.21e-04    19.3
   10    -999.8235208645339753    -1.94e-06  2.11e-05  7.16e-04  1.62e-04    16.8
   11    -999.8235225237037866    -1.66e-06  8.93e-06  1.88e-04  4.84e-05    14.7
   12    -999.8235225840442126    -6.03e-08  4.07e-06  1.13e-04  1.98e-05    12.8
   13    -999.8235226606245760    -7.66e-08  8.67e-07  2.10e-05  4.89e-06    11.1
   14    -999.8235226572662668     3.36e-09  4.14e-07  8.00e-06  2.93e-06     8.9
                 **** Energy Check signals convergence ****

               *****************************************************
               *                     SUCCESS                       *
               *           SCF CONVERGED AFTER  14 CYCLES          *
               *****************************************************

Recomputing exchange energy using gridx3       ... done (   50.191 sec)
Old exchange energy                            :    -38.788457007 Eh
New exchange energy                            :    -38.788482743 Eh
Exchange energy change after final integration :     -0.000025736 Eh
Total energy after final integration           :   -999.823548410 Eh
             **** ENERGY FILE WAS UPDATED (td.en.tmp) ****

----------------
TOTAL SCF ENERGY
----------------

Total Energy       :       -999.82354841046777 Eh          -27206.58191 eV

Components:
Nuclear Repulsion  :       1725.87937937855736 Eh           46963.56549 eV
Electronic Energy  :      -2725.68610513236808 Eh          -74169.68963 eV
One Electron Energy:      -4785.15365550708248 Eh         -130210.65075 eV
Two Electron Energy:       2059.46755037471439 Eh           56040.96111 eV
CPCM Dielectric    :         -0.01679692110885 Eh              -0.45707 eV

Virial components:
Potential Energy   :      -1988.80603722735077 Eh          -54118.16359 eV
Kinetic Energy     :        988.98248881688312 Eh           26911.58168 eV
Virial Ratio       :          2.01096183169689

DFT components:
N(Alpha)           :       82.999929478411 electrons
N(Beta)            :       82.999929478411 electrons
N(Total)           :      165.999858956822 electrons
E(XC)              :     -103.009714757186 Eh       

CPCM Solvation Model Properties:
Surface-charge          :         -0.03231010157201
Corrected charge        :          0.00000000000000
Outlying charge corr.   :          0.00004891046045 Eh               0.00133 eV
Free-energy (cav+disp)  :  This term is not implemented in the current solvation scheme

---------------
SCF CONVERGENCE
---------------

  Last Energy change         ...   -3.3583e-09  Tolerance :   1.0000e-08
  Last MAX-Density change    ...    7.9957e-06  Tolerance :   1.0000e-07
  Last RMS-Density change    ...    4.1371e-07  Tolerance :   5.0000e-09
  Last DIIS Error            ...    8.6928e-04  Tolerance :   5.0000e-07
  Last Orbital Gradient      ...    2.9324e-06  Tolerance :   1.0000e-05
  Last Orbital Rotation      ...    1.0229e-05  Tolerance :   1.0000e-05


----------------
ORBITAL ENERGIES
----------------

  NO   OCC          E(Eh)            E(eV) 
   0   2.0000     -19.245807      -523.7050 
   1   2.0000     -19.235253      -523.4178 
   2   2.0000     -19.198785      -522.4255 
   3   2.0000     -10.356079      -281.8032 
   4   2.0000     -10.353824      -281.7419 
   5   2.0000     -10.338189      -281.3164 
   6   2.0000     -10.312897      -280.6282 
   7   2.0000     -10.279972      -279.7323 
   8   2.0000     -10.278098      -279.6813 
   9   2.0000     -10.276855      -279.6475 
  10   2.0000     -10.276539      -279.6388 
  11   2.0000     -10.275662      -279.6150 
  12   2.0000     -10.273559      -279.5578 
  13   2.0000     -10.272687      -279.5340 
  14   2.0000     -10.269137      -279.4374 
  15   2.0000     -10.269042      -279.4348 
  16   2.0000     -10.268184      -279.4115 
  17   2.0000     -10.264821      -279.3200 
  18   2.0000     -10.264728      -279.3175 
  19   2.0000     -10.251043      -278.9451 
  20   2.0000     -10.247785      -278.8564 
  21   2.0000     -10.247751      -278.8555 
  22   2.0000     -10.246028      -278.8086 
  23   2.0000      -1.149628       -31.2830 
  24   2.0000      -1.147435       -31.2233 
  25   2.0000      -1.097357       -29.8606 
  26   2.0000      -0.943692       -25.6792 
  27   2.0000      -0.942299       -25.6413 
  28   2.0000      -0.894552       -24.3420 
  29   2.0000      -0.867358       -23.6020 
  30   2.0000      -0.840369       -22.8676 
  31   2.0000      -0.830939       -22.6110 
  32   2.0000      -0.822590       -22.3838 
  33   2.0000      -0.811504       -22.0822 
  34   2.0000      -0.781514       -21.2661 
  35   2.0000      -0.753706       -20.5094 
  36   2.0000      -0.752287       -20.4708 
  37   2.0000      -0.723606       -19.6903 
  38   2.0000      -0.705551       -19.1990 
  39   2.0000      -0.690850       -18.7990 
  40   2.0000      -0.673741       -18.3334 
  41   2.0000      -0.649958       -17.6863 
  42   2.0000      -0.644504       -17.5379 
  43   2.0000      -0.620344       -16.8804 
  44   2.0000      -0.613372       -16.6907 
  45   2.0000      -0.588980       -16.0270 
  46   2.0000      -0.569857       -15.5066 
  47   2.0000      -0.554845       -15.0981 
  48   2.0000      -0.548963       -14.9380 
  49   2.0000      -0.543783       -14.7971 
  50   2.0000      -0.542519       -14.7627 
  51   2.0000      -0.522628       -14.2214 
  52   2.0000      -0.516790       -14.0626 
  53   2.0000      -0.512163       -13.9367 
  54   2.0000      -0.509959       -13.8767 
  55   2.0000      -0.504099       -13.7172 
  56   2.0000      -0.504042       -13.7157 
  57   2.0000      -0.497553       -13.5391 
  58   2.0000      -0.489425       -13.3179 
  59   2.0000      -0.484467       -13.1830 
  60   2.0000      -0.482089       -13.1183 
  61   2.0000      -0.473067       -12.8728 
  62   2.0000      -0.459454       -12.5024 
  63   2.0000      -0.456703       -12.4275 
  64   2.0000      -0.454006       -12.3541 
  65   2.0000      -0.449108       -12.2208 
  66   2.0000      -0.441115       -12.0034 
  67   2.0000      -0.436362       -11.8740 
  68   2.0000      -0.425176       -11.5696 
  69   2.0000      -0.424640       -11.5550 
  70   2.0000      -0.421322       -11.4648 
  71   2.0000      -0.413469       -11.2511 
  72   2.0000      -0.396076       -10.7778 
  73   2.0000      -0.393535       -10.7086 
  74   2.0000      -0.391553       -10.6547 
  75   2.0000      -0.387779       -10.5520 
  76   2.0000      -0.378214       -10.2917 
  77   2.0000      -0.333281        -9.0690 
  78   2.0000      -0.326408        -8.8820 
  79   2.0000      -0.318932        -8.6786 
  80   2.0000      -0.314654        -8.5622 
  81   2.0000      -0.303838        -8.2678 
  82   2.0000      -0.271079        -7.3764 
  83   0.0000      -0.038582        -1.0499 
  84   0.0000       0.017033         0.4635 
  85   0.0000       0.029267         0.7964 
  86   0.0000       0.034785         0.9466 
  87   0.0000       0.084244         2.2924 
  88   0.0000       0.100691         2.7399 
  89   0.0000       0.109450         2.9783 
  90   0.0000       0.119881         3.2621 
  91   0.0000       0.136685         3.7194 
  92   0.0000       0.141219         3.8428 
  93   0.0000       0.143508         3.9051 
*Only the first 10 virtual orbitals were printed.

                    ********************************
                    * MULLIKEN POPULATION ANALYSIS *
                    ********************************

-----------------------
MULLIKEN ATOMIC CHARGES
-----------------------
   0 C :    0.146503
   1 O :   -0.317261
   2 C :    0.228832
   3 C :   -0.098125
   4 C :   -0.025404
   5 C :    0.022996
   6 C :   -0.019783
   7 C :   -0.042100
   8 C :    0.195445
   9 O :   -0.200873
  10 C :   -0.239034
  11 C :    0.214552
  12 O :   -0.347538
  13 C :    0.011806
  14 C :   -0.013202
  15 C :   -0.051262
  16 C :    0.089949
  17 C :   -0.247682
  18 C :    0.048014
  19 C :    0.049358
  20 C :    0.067265
  21 C :   -0.056618
  22 C :   -0.028607
  23 H :    0.047499
  24 H :    0.047660
  25 H :    0.055054
  26 H :    0.014610
  27 H :    0.012957
  28 H :    0.016972
  29 H :    0.006489
  30 H :    0.211976
  31 H :    0.020193
  32 H :    0.006025
  33 H :    0.000695
  34 H :    0.017118
  35 H :    0.018361
  36 H :    0.017470
  37 H :    0.017620
  38 H :    0.017955
  39 H :    0.017024
  40 H :    0.019918
  41 H :    0.016098
  42 H :    0.020395
  43 H :    0.012098
  44 H :   -0.001417
Sum of atomic charges:    0.0000000

--------------------------------
MULLIKEN REDUCED ORBITAL CHARGES
--------------------------------
  0 C s       :     3.021277  s :     3.021277
      pz      :     1.004324  p :     2.780273
      px      :     0.736653
      py      :     1.039296
      dz2     :     0.006414  d :     0.051947
      dxz     :     0.014232
      dyz     :     0.007468
      dx2y2   :     0.015434
      dxy     :     0.008399

  1 O s       :     3.711063  s :     3.711063
      pz      :     1.634426  p :     4.589658
      px      :     1.181939
      py      :     1.773293
      dz2     :     0.002346  d :     0.016540
      dxz     :     0.006763
      dyz     :     0.002009
      dx2y2   :     0.002568
      dxy     :     0.002854

  2 C s       :     2.955652  s :     2.955652
      pz      :     0.938267  p :     2.739382
      px      :     0.865255
      py      :     0.935860
      dz2     :     0.015527  d :     0.076134
      dxz     :     0.024171
      dyz     :     0.010060
      dx2y2   :     0.011631
      dxy     :     0.014745

  3 C s       :     3.244868  s :     3.244868
      pz      :     0.926364  p :     2.821279
      px      :     0.845299
      py      :     1.049616
      dz2     :     0.009160  d :     0.031978
      dxz     :     0.008893
      dyz     :     0.004961
      dx2y2   :     0.005141
      dxy     :     0.003823

  4 C s       :     3.263878  s :     3.263878
      pz      :     0.851288  p :     2.726297
      px      :     0.950579
      py      :     0.924431
      dz2     :     0.008045  d :     0.035229
      dxz     :     0.010117
      dyz     :     0.003062
      dx2y2   :     0.006000
      dxy     :     0.008005

  5 C s       :     3.084615  s :     3.084615
      pz      :     0.904669  p :     2.854155
      px      :     0.889364
      py      :     1.060122
      dz2     :     0.008803  d :     0.038235
      dxz     :     0.012696
      dyz     :     0.005362
      dx2y2   :     0.005811
      dxy     :     0.005563

  6 C s       :     3.228342  s :     3.228342
      pz      :     0.947715  p :     2.756083
      px      :     0.864385
      py      :     0.943983
      dz2     :     0.009036  d :     0.035358
      dxz     :     0.010751
      dyz     :     0.005901
      dx2y2   :     0.005118
      dxy     :     0.004552

  7 C s       :     3.244451  s :     3.244451
      pz      :     0.830108  p :     2.765628
      px      :     0.917537
      py      :     1.017983
      dz2     :     0.007541  d :     0.032022
      dxz     :     0.009611
      dyz     :     0.003112
      dx2y2   :     0.005773
      dxy     :     0.005985

  8 C s       :     3.086255  s :     3.086255
      pz      :     0.848454  p :     2.635520
      px      :     0.955301
      py      :     0.831765
      dz2     :     0.023143  d :     0.082780
      dxz     :     0.023716
      dyz     :     0.016648
      dx2y2   :     0.007599
      dxy     :     0.011674

  9 O s       :     3.656018  s :     3.656018
      pz      :     1.317703  p :     4.530556
      px      :     1.530554
      py      :     1.682299
      dz2     :     0.004752  d :     0.014299
      dxz     :     0.003242
      dyz     :     0.002859
      dx2y2   :     0.002506
      dxy     :     0.000940

 10 C s       :     3.208174  s :     3.208174
      pz      :     0.897669  p :     3.004339
      px      :     0.915873
      py      :     1.190797
      dz2     :     0.006073  d :     0.026522
      dxz     :     0.008993
      dyz     :     0.002604
      dx2y2   :     0.005223
      dxy     :     0.003628

 11 C s       :     3.079344  s :     3.079344
      pz      :     0.882388  p :     2.615356
      px      :     0.940485
      py      :     0.792483
      dz2     :     0.023818  d :     0.090748
      dxz     :     0.031129
      dyz     :     0.018360
      dx2y2   :     0.007833
      dxy     :     0.009608

 12 O s       :     3.736679  s :     3.736679
      pz      :     1.356212  p :     4.596095
      px      :     1.743917
      py      :     1.495966
      dz2     :     0.006380  d :     0.014764
      dxz     :     0.002704
      dyz     :     0.004588
      dx2y2   :     0.000774
      dxy     :     0.000317

 13 C s       :     3.113604  s :     3.113604
      pz      :     0.900177  p :     2.836430
      px      :     0.912752
      py      :     1.023501
      dz2     :     0.009707  d :     0.038160
      dxz     :     0.011531
      dyz     :     0.005871
      dx2y2   :     0.006376
      dxy     :     0.004674

 14 C s       :     3.230184  s :     3.230184
      pz      :     0.920320  p :     2.748262
      px      :     0.877879
      py      :     0.950062
      dz2     :     0.007948  d :     0.034757
      dxz     :     0.011719
      dyz     :     0.004763
      dx2y2   :     0.004937
      dxy     :     0.005390

 15 C s       :     3.240843  s :     3.240843
      pz      :     0.866316  p :     2.776663
      px      :     0.924147
      py      :     0.986200
      dz2     :     0.008102  d :     0.033756
      dxz     :     0.010055
      dyz     :     0.003257
      dx2y2   :     0.006042
      dxy     :     0.006299

 16 C s       :     3.077320  s :     3.077320
      pz      :     0.929798  p :     2.791711
      px      :     0.936286
      py      :     0.925627
      dz2     :     0.009939  d :     0.041019
      dxz     :     0.012169
      dyz     :     0.005742
      dx2y2   :     0.006236
      dxy     :     0.006934

 17 C s       :     3.195471  s :     3.195471
      pz      :     1.025537  p :     3.001775
      px      :     0.965738
      py      :     1.010500
      dz2     :     0.011476  d :     0.050435
      dxz     :     0.008181
      dyz     :     0.010157
      dx2y2   :     0.011453
      dxy     :     0.009169

 18 C s       :     2.986433  s :     2.986433
      pz      :     1.002850  p :     2.937181
      px      :     0.986136
      py      :     0.948195
      dz2     :     0.006307  d :     0.028372
      dxz     :     0.002789
      dyz     :     0.007041
      dx2y2   :     0.007240
      dxy     :     0.004995

 19 C s       :     2.985435  s :     2.985435
      pz      :     0.979851  p :     2.936835
      px      :     0.984857
      py      :     0.972127
      dz2     :     0.008964  d :     0.028373
      dxz     :     0.002877
      dyz     :     0.004248
      dx2y2   :     0.007479
      dxy     :     0.004804

 20 C s       :     2.952835  s :     2.952835
      pz      :     0.967802  p :     2.951590
      px      :     0.991659
      py      :     0.992129
      dz2     :     0.007161  d :     0.028309
      dxz     :     0.004395
      dyz     :     0.006411
      dx2y2   :     0.006408
      dxy     :     0.003934

 21 C s       :     3.243171  s :     3.243171
      pz      :     0.918699  p :     2.779592
      px      :     0.876130
      py      :     0.984764
      dz2     :     0.007753  d :     0.033854
      dxz     :     0.011740
      dyz     :     0.004299
      dx2y2   :     0.005022
      dxy     :     0.005039

 22 C s       :     3.263868  s :     3.263868
      pz      :     0.854818  p :     2.730092
      px      :     0.937386
      py      :     0.937888
      dz2     :     0.007619  d :     0.034646
      dxz     :     0.010808
      dyz     :     0.003176
      dx2y2   :     0.005810
      dxy     :     0.007233

 23 H s       :     0.930358  s :     0.930358
      pz      :     0.010903  p :     0.022143
      px      :     0.002786
      py      :     0.008454

 24 H s       :     0.930199  s :     0.930199
      pz      :     0.005337  p :     0.022141
      px      :     0.002734
      py      :     0.014071

 25 H s       :     0.923496  s :     0.923496
      pz      :     0.009568  p :     0.021450
      px      :     0.006633
      py      :     0.005250

 26 H s       :     0.962247  s :     0.962247
      pz      :     0.005841  p :     0.023143
      px      :     0.012507
      py      :     0.004795

 27 H s       :     0.964253  s :     0.964253
      pz      :     0.014557  p :     0.022790
      px      :     0.003274
      py      :     0.004958

 28 H s       :     0.960167  s :     0.960167
      pz      :     0.006038  p :     0.022861
      px      :     0.012606
      py      :     0.004217

 29 H s       :     0.970859  s :     0.970859
      pz      :     0.014374  p :     0.022653
      px      :     0.002930
      py      :     0.005349

 30 H s       :     0.704130  s :     0.704130
      pz      :     0.016472  p :     0.083894
      px      :     0.053508
      py      :     0.013914

 31 H s       :     0.955806  s :     0.955806
      pz      :     0.014227  p :     0.024000
      px      :     0.003617
      py      :     0.006156

 32 H s       :     0.971128  s :     0.971128
      pz      :     0.008499  p :     0.022847
      px      :     0.009633
      py      :     0.004715

 33 H s       :     0.976467  s :     0.976467
      pz      :     0.013709  p :     0.022838
      px      :     0.003647
      py      :     0.005482

 34 H s       :     0.960420  s :     0.960420
      pz      :     0.008062  p :     0.022462
      px      :     0.006246
      py      :     0.008154

 35 H s       :     0.958866  s :     0.958866
      pz      :     0.012946  p :     0.022772
      px      :     0.004687
      py      :     0.005139

 36 H s       :     0.959883  s :     0.959883
      pz      :     0.005572  p :     0.022647
      px      :     0.013280
      py      :     0.003794

 37 H s       :     0.959739  s :     0.959739
      pz      :     0.004971  p :     0.022642
      px      :     0.013276
      py      :     0.004395

 38 H s       :     0.959289  s :     0.959289
      pz      :     0.013093  p :     0.022756
      px      :     0.004656
      py      :     0.005007

 39 H s       :     0.960515  s :     0.960515
      pz      :     0.004377  p :     0.022461
      px      :     0.006060
      py      :     0.012024

 40 H s       :     0.957366  s :     0.957366
      pz      :     0.008014  p :     0.022717
      px      :     0.006569
      py      :     0.008134

 41 H s       :     0.961278  s :     0.961278
      pz      :     0.004284  p :     0.022624
      px      :     0.013533
      py      :     0.004807

 42 H s       :     0.956891  s :     0.956891
      pz      :     0.003865  p :     0.022714
      px      :     0.006370
      py      :     0.012479

 43 H s       :     0.965302  s :     0.965302
      pz      :     0.008133  p :     0.022600
      px      :     0.009680
      py      :     0.004788

 44 H s       :     0.978620  s :     0.978620
      pz      :     0.013693  p :     0.022798
      px      :     0.004077
      py      :     0.005028



                     *******************************
                     * LOEWDIN POPULATION ANALYSIS *
                     *******************************

----------------------
LOEWDIN ATOMIC CHARGES
----------------------
   0 C :    0.079105
   1 O :   -0.106516
   2 C :    0.066360
   3 C :   -0.079793
   4 C :    0.011853
   5 C :   -0.085910
   6 C :    0.006531
   7 C :   -0.057199
   8 C :    0.128414
   9 O :   -0.045485
  10 C :   -0.189899
  11 C :    0.106313
  12 O :   -0.229625
  13 C :   -0.074487
  14 C :   -0.006660
  15 C :   -0.038331
  16 C :    0.009759
  17 C :   -0.045570
  18 C :   -0.043381
  19 C :   -0.043257
  20 C :   -0.049126
  21 C :   -0.031050
  22 C :   -0.002141
  23 H :    0.026632
  24 H :    0.026653
  25 H :    0.036223
  26 H :    0.043342
  27 H :    0.038797
  28 H :    0.044021
  29 H :    0.042017
  30 H :    0.048233
  31 H :    0.036073
  32 H :    0.039933
  33 H :    0.036741
  34 H :    0.025706
  35 H :    0.024416
  36 H :    0.026538
  37 H :    0.026551
  38 H :    0.024382
  39 H :    0.025691
  40 H :    0.025506
  41 H :    0.028249
  42 H :    0.025513
  43 H :    0.035797
  44 H :    0.033081

-------------------------------
LOEWDIN REDUCED ORBITAL CHARGES
-------------------------------
  0 C s       :     2.847218  s :     2.847218
      pz      :     1.057451  p :     2.956009
      px      :     0.813368
      py      :     1.085189
      dz2     :     0.013922  d :     0.117668
      dxz     :     0.033049
      dyz     :     0.018710
      dx2y2   :     0.033653
      dxy     :     0.018333

  1 O s       :     3.423162  s :     3.423162
      pz      :     1.651304  p :     4.652221
      px      :     1.243905
      py      :     1.757012
      dz2     :     0.003937  d :     0.031133
      dxz     :     0.013247
      dyz     :     0.002375
      dx2y2   :     0.006121
      dxy     :     0.005454

  2 C s       :     2.840636  s :     2.840636
      pz      :     1.032681  p :     2.917701
      px      :     0.948100
      py      :     0.936920
      dz2     :     0.038527  d :     0.175303
      dxz     :     0.058793
      dyz     :     0.021418
      dx2y2   :     0.026542
      dxy     :     0.030023

  3 C s       :     2.857889  s :     2.857889
      pz      :     1.041971  p :     3.136327
      px      :     1.055529
      py      :     1.038827
      dz2     :     0.025754  d :     0.085577
      dxz     :     0.026986
      dyz     :     0.011680
      dx2y2   :     0.013050
      dxy     :     0.008107

  4 C s       :     2.859041  s :     2.859041
      pz      :     1.044185  p :     3.038619
      px      :     1.056778
      py      :     0.937655
      dz2     :     0.021258  d :     0.090487
      dxz     :     0.028256
      dyz     :     0.006191
      dx2y2   :     0.016942
      dxy     :     0.017840

  5 C s       :     2.845394  s :     2.845394
      pz      :     1.057033  p :     3.137588
      px      :     1.034447
      py      :     1.046108
      dz2     :     0.025278  d :     0.102928
      dxz     :     0.037053
      dyz     :     0.012355
      dx2y2   :     0.016015
      dxy     :     0.012228

  6 C s       :     2.857884  s :     2.857884
      pz      :     1.041407  p :     3.045099
      px      :     1.057554
      py      :     0.946138
      dz2     :     0.024578  d :     0.090486
      dxz     :     0.029914
      dyz     :     0.013524
      dx2y2   :     0.012962
      dxy     :     0.009508

  7 C s       :     2.860734  s :     2.860734
      pz      :     1.042310  p :     3.111249
      px      :     1.049104
      py      :     1.019835
      dz2     :     0.020308  d :     0.085216
      dxz     :     0.028277
      dyz     :     0.006195
      dx2y2   :     0.016829
      dxy     :     0.013606

  8 C s       :     2.852698  s :     2.852698
      pz      :     0.912772  p :     2.835105
      px      :     1.086625
      py      :     0.835708
      dz2     :     0.051260  d :     0.183783
      dxz     :     0.056860
      dyz     :     0.033434
      dx2y2   :     0.018355
      dxy     :     0.023875

  9 O s       :     3.420582  s :     3.420582
      pz      :     1.373812  p :     4.598346
      px      :     1.561872
      py      :     1.662662
      dz2     :     0.009728  d :     0.026557
      dxz     :     0.006534
      dyz     :     0.004989
      dx2y2   :     0.004299
      dxy     :     0.001008

 10 C s       :     2.856257  s :     2.856257
      pz      :     1.058882  p :     3.256065
      px      :     1.032227
      py      :     1.164956
      dz2     :     0.018659  d :     0.077576
      dxz     :     0.028466
      dyz     :     0.005754
      dx2y2   :     0.015864
      dxy     :     0.008833

 11 C s       :     2.859878  s :     2.859878
      pz      :     0.975050  p :     2.826578
      px      :     1.052139
      py      :     0.799389
      dz2     :     0.055579  d :     0.207232
      dxz     :     0.076024
      dyz     :     0.037569
      dx2y2   :     0.018235
      dxy     :     0.019825

 12 O s       :     3.533122  s :     3.533122
      pz      :     1.456685  p :     4.670424
      px      :     1.711704
      py      :     1.502035
      dz2     :     0.012056  d :     0.026079
      dxz     :     0.005028
      dyz     :     0.007006
      dx2y2   :     0.001411
      dxy     :     0.000578

 13 C s       :     2.856135  s :     2.856135
      pz      :     1.066277  p :     3.115829
      px      :     1.032939
      py      :     1.016614
      dz2     :     0.026862  d :     0.102523
      dxz     :     0.034142
      dyz     :     0.013801
      dx2y2   :     0.017150
      dxy     :     0.010567

 14 C s       :     2.859561  s :     2.859561
      pz      :     1.040359  p :     3.057284
      px      :     1.059476
      py      :     0.957449
      dz2     :     0.021557  d :     0.089814
      dxz     :     0.032414
      dyz     :     0.010890
      dx2y2   :     0.013159
      dxy     :     0.011794

 15 C s       :     2.857855  s :     2.857855
      pz      :     1.040742  p :     3.091799
      px      :     1.056802
      py      :     0.994255
      dz2     :     0.021377  d :     0.088677
      dxz     :     0.028766
      dyz     :     0.006782
      dx2y2   :     0.017440
      dxy     :     0.014313

 16 C s       :     2.864544  s :     2.864544
      pz      :     1.055340  p :     3.022466
      px      :     1.044351
      py      :     0.922775
      dz2     :     0.026663  d :     0.103232
      dxz     :     0.033265
      dyz     :     0.013368
      dx2y2   :     0.015726
      dxy     :     0.014209

 17 C s       :     2.844699  s :     2.844699
      pz      :     1.035978  p :     3.086206
      px      :     1.013368
      py      :     1.036860
      dz2     :     0.027073  d :     0.114665
      dxz     :     0.018121
      dyz     :     0.022134
      dx2y2   :     0.026341
      dxy     :     0.020996

 18 C s       :     2.842802  s :     2.842802
      pz      :     1.063323  p :     3.129697
      px      :     1.050967
      py      :     1.015407
      dz2     :     0.016119  d :     0.070881
      dxz     :     0.006801
      dyz     :     0.016749
      dx2y2   :     0.017964
      dxy     :     0.013249

 19 C s       :     2.842796  s :     2.842796
      pz      :     1.042024  p :     3.129575
      px      :     1.049790
      py      :     1.037761
      dz2     :     0.021541  d :     0.070886
      dxz     :     0.007577
      dyz     :     0.011509
      dx2y2   :     0.017949
      dxy     :     0.012311

 20 C s       :     2.839669  s :     2.839669
      pz      :     1.017207  p :     3.138272
      px      :     1.064833
      py      :     1.056232
      dz2     :     0.019075  d :     0.071184
      dxz     :     0.010356
      dyz     :     0.016026
      dx2y2   :     0.015928
      dxy     :     0.009800

 21 C s       :     2.858036  s :     2.858036
      pz      :     1.043302  p :     3.084251
      px      :     1.054797
      py      :     0.986153
      dz2     :     0.021172  d :     0.088762
      dxz     :     0.033234
      dyz     :     0.009821
      dx2y2   :     0.013451
      dxy     :     0.011085

 22 C s       :     2.860221  s :     2.860221
      pz      :     1.040775  p :     3.052334
      px      :     1.061450
      py      :     0.950109
      dz2     :     0.020094  d :     0.089587
      dxz     :     0.030117
      dyz     :     0.006621
      dx2y2   :     0.016549
      dxy     :     0.016206

 23 H s       :     0.908940  s :     0.908940
[...]
  0-1A  ->  6-1A    5.439599   43873.3   227.9   0.093958026   0.70503  -0.81586   0.05950  -0.18936
  0-1A  ->  7-1A    5.770035   46538.5   214.9   0.051745727   0.36605   0.34956   0.15602  -0.46853
  0-1A  ->  8-1A    6.030746   48641.2   205.6   0.210676051   1.42589  -0.81636   0.26947  -0.82876
  0-1A  ->  9-1A    6.192872   49948.9   200.2   0.091197167   0.60108   0.08122   0.25646  -0.72713
  0-1A  -> 10-1A    6.533540   52696.6   189.8   0.000991577   0.00619   0.05523   0.05534   0.00906
  0-1A  -> 11-1A    6.556355   52880.6   189.1   0.074898867   0.46629   0.67997   0.02146  -0.05894
  0-1A  -> 12-1A    6.629635   53471.6   187.0   0.045949666   0.28290   0.52597  -0.02667   0.07448
  0-1A  -> 13-1A    6.755855   54489.6   183.5   0.076143823   0.46004  -0.58276  -0.10759   0.32994
  0-1A  -> 14-1A    6.758586   54511.7   183.4   0.001203764   0.00727   0.05812  -0.01378  -0.06084
  0-1A  -> 15-1A    6.862552   55350.2   180.7   0.066814070   0.39740   0.23374   0.17708  -0.55804
  0-1A  -> 16-1A    6.898117   55637.1   179.7   0.000984449   0.00583  -0.01420  -0.06096  -0.04368
  0-1A  -> 17-1A    7.035090   56741.8   176.2   0.004905044   0.02846  -0.00849   0.15415   0.06799
  0-1A  -> 18-1A    7.146318   57638.9   173.5   0.789024093   4.50661  -2.12153  -0.01821   0.07339
  0-1A  -> 19-1A    7.291244   58807.9   170.0   0.001615892   0.00905   0.06579  -0.01633  -0.06671
  0-1A  -> 20-1A    7.324394   59075.2   169.3   0.187847454   1.04683  -1.02201  -0.02987  -0.03797
  0-1A  -> 21-1A    7.355667   59327.5   168.6   0.005625736   0.03122   0.04581   0.04473  -0.16468
  0-1A  -> 22-1A    7.373471   59471.1   168.1   0.250632014   1.38742   0.82672   0.28565  -0.78890

----------------------------------------------------------------------------------------------------
                     ABSORPTION SPECTRUM VIA TRANSITION VELOCITY DIPOLE MOMENTS    
----------------------------------------------------------------------------------------------------
     Transition      Energy     Energy  Wavelength fosc(P2)      P2        PX        PY        PZ   
                      (eV)      (cm-1)    (nm)                 (au**2)    (au)      (au)      (au)  
----------------------------------------------------------------------------------------------------
  0-1A  ->  1-1A    3.933880   31728.9   315.2   0.783642951   0.16993  -0.41059  -0.01041   0.03519
  0-1A  ->  2-1A    4.247946   34262.0   291.9   0.000070372   0.00002   0.00016   0.00387   0.00121
  0-1A  ->  3-1A    4.950853   39931.3   250.4   0.004208791   0.00115  -0.03379  -0.00054   0.00255
  0-1A  ->  4-1A    4.957382   39984.0   250.1   0.000460476   0.00013   0.00505  -0.00297   0.00957
  0-1A  ->  5-1A    5.115706   41261.0   242.4   0.029418353   0.00830  -0.07990   0.01266  -0.04184
  0-1A  ->  6-1A    5.439599   43873.3   227.9   0.077709869   0.02330   0.15265  -0.00018  -0.00049
  0-1A  ->  7-1A    5.770035   46538.5   214.9   0.020961770   0.00667  -0.06426  -0.01497   0.04810
  0-1A  ->  8-1A    6.030746   48641.2   205.6   0.007699607   0.00256   0.04986  -0.00274   0.00815
  0-1A  ->  9-1A    6.192872   49948.9   200.2   0.001402600   0.00048   0.02012  -0.00294   0.00808
  0-1A  -> 10-1A    6.533540   52696.6   189.8   0.000362341   0.00013  -0.00777  -0.00814  -0.00196
  0-1A  -> 11-1A    6.556355   52880.6   189.1   0.020165813   0.00729  -0.08486  -0.00265   0.00895
  0-1A  -> 12-1A    6.629635   53471.6   187.0   0.028068486   0.01026  -0.10128  -0.00012   0.00006
  0-1A  -> 13-1A    6.755855   54489.6   183.5   0.029409653   0.01095   0.10398   0.00400  -0.01115
  0-1A  -> 14-1A    6.758586   54511.7   183.4   0.000418438   0.00016  -0.00970   0.00647   0.00446
  0-1A  -> 15-1A    6.862552   55350.2   180.7   0.027230160   0.01030  -0.04127  -0.02798   0.08840
  0-1A  -> 16-1A    6.898117   55637.1   179.7   0.000305247   0.00012   0.00241   0.00848   0.00619
  0-1A  -> 17-1A    7.035090   56741.8   176.2   0.001662804   0.00064   0.00135  -0.02363  -0.00921
  0-1A  -> 18-1A    7.146318   57638.9   173.5   0.388478345   0.15303   0.39081   0.00435  -0.01683
  0-1A  -> 19-1A    7.291244   58807.9   170.0   0.000472319   0.00019  -0.00964   0.00922   0.00346
  0-1A  -> 20-1A    7.324394   59075.2   169.3   0.107988148   0.04360   0.19657  -0.01842   0.06797
  0-1A  -> 21-1A    7.355667   59327.5   168.6   0.001210193   0.00049   0.00554   0.00496   0.02087
  0-1A  -> 22-1A    7.373471   59471.1   168.1   0.023628796   0.00960  -0.07533  -0.02259   0.05848

------------------------------------------------------------------------------------------
                     CD SPECTRUM VIA TRANSITION ELECTRIC DIPOLE MOMENTS    
------------------------------------------------------------------------------------------
     Transition      Energy     Energy  Wavelength    R        MX        MY        MZ   
                      (eV)      (cm-1)    (nm)   (1e40*cgs)   (au)      (au)      (au)  
------------------------------------------------------------------------------------------
  0-1A  ->  1-1A    3.933880   31728.9   315.2   -0.18969  -0.00002  -0.38377  -0.11561
  0-1A  ->  2-1A    4.247946   34262.0   291.9   -0.64314   0.02988  -0.06125   0.19773
  0-1A  ->  3-1A    4.950853   39931.3   250.4   -0.16109  -0.00081   0.13846   0.04680
  0-1A  ->  4-1A    4.957382   39984.0   250.1    0.46490   0.00219   0.16912   0.05480
  0-1A  ->  5-1A    5.115706   41261.0   242.4    0.64647  -0.00388  -0.12188  -0.03713
  0-1A  ->  6-1A    5.439599   43873.3   227.9    0.55119   0.00271   0.12734   0.03451
  0-1A  ->  7-1A    5.770035   46538.5   214.9    1.47935  -0.00201  -0.11890  -0.03439
  0-1A  ->  8-1A    6.030746   48641.2   205.6   -0.10930  -0.00070  -0.23420  -0.07574
  0-1A  ->  9-1A    6.192872   49948.9   200.2   -2.39710   0.00161   0.06284   0.01535
  0-1A  -> 10-1A    6.533540   52696.6   189.8   -0.17089   0.05415  -0.08104   0.20485
  0-1A  -> 11-1A    6.556355   52880.6   189.1    1.38780  -0.00436  -0.21668  -0.07922
  0-1A  -> 12-1A    6.629635   53471.6   187.0    1.03533  -0.00431  -0.04472  -0.01504
  0-1A  -> 13-1A    6.755855   54489.6   183.5   -0.88734   0.00056  -0.08750  -0.02184
  0-1A  -> 14-1A    6.758586   54511.7   183.4    1.06128   0.02619  -0.00222   0.06253
  0-1A  -> 15-1A    6.862552   55350.2   180.7    0.69519  -0.00051  -0.18978  -0.05779
  0-1A  -> 16-1A    6.898117   55637.1   179.7    0.01607  -0.01816   0.00185   0.00410
  0-1A  -> 17-1A    7.035090   56741.8   176.2   -1.34160  -0.09253  -0.05661   0.15865
  0-1A  -> 18-1A    7.146318   57638.9   173.5   -1.16093  -0.00020   0.49233   0.15003
  0-1A  -> 19-1A    7.291244   58807.9   170.0    5.38892  -0.10223  -0.01667   0.07460
  0-1A  -> 20-1A    7.324394   59075.2   169.3    5.80036  -0.00159   0.31719   0.11743
  0-1A  -> 21-1A    7.355667   59327.5   168.6  -15.15163  -0.02964   0.16791  -0.15780
  0-1A  -> 22-1A    7.373471   59471.1   168.1    2.98211   0.01630   0.40833   0.17295

------------------------------------------------------------------------------------------
                     CD SPECTRUM VIA TRANSITION VELOCITY DIPOLE MOMENTS    
------------------------------------------------------------------------------------------
     Transition      Energy     Energy  Wavelength    R        MX        MY        MZ   
                      (eV)      (cm-1)    (nm)   (1e40*cgs)   (au)      (au)      (au)  
------------------------------------------------------------------------------------------
  0-1A  ->  1-1A    3.933880   31728.9   315.2   -0.21260  -0.00002  -0.38377  -0.11561
  0-1A  ->  2-1A    4.247946   34262.0   291.9    0.02141   0.02988  -0.06125   0.19773
  0-1A  ->  3-1A    4.950853   39931.3   250.4    0.18570  -0.00081   0.13846   0.04680
  0-1A  ->  4-1A    4.957382   39984.0   250.1    0.08578   0.00219   0.16912   0.05480
  0-1A  ->  5-1A    5.115706   41261.0   242.4    0.80526  -0.00388  -0.12188  -0.03713
  0-1A  ->  6-1A    5.439599   43873.3   227.9    0.88363   0.00271   0.12734   0.03451
  0-1A  ->  7-1A    5.770035   46538.5   214.9    0.56702  -0.00201  -0.11890  -0.03439
  0-1A  ->  8-1A    6.030746   48641.2   205.6   -0.02351  -0.00070  -0.23420  -0.07574
  0-1A  ->  9-1A    6.192872   49948.9   200.2   -0.05918   0.00161   0.06284   0.01535
  0-1A  -> 10-1A    6.533540   52696.6   189.8   -0.31926   0.05415  -0.08104   0.20485
  0-1A  -> 11-1A    6.556355   52880.6   189.1    0.45927  -0.00436  -0.21668  -0.07922
  0-1A  -> 12-1A    6.629635   53471.6   187.0    0.85422  -0.00431  -0.04472  -0.01504
  0-1A  -> 13-1A    6.755855   54489.6   183.5   -0.09256   0.00056  -0.08750  -0.02184
  0-1A  -> 14-1A    6.758586   54511.7   183.4    0.02001   0.02619  -0.00222   0.06253
  0-1A  -> 15-1A    6.862552   55350.2   180.7    0.41712  -0.00051  -0.18978  -0.05779
  0-1A  -> 16-1A    6.898117   55637.1   179.7   -0.00497  -0.01816   0.00185   0.00410
  0-1A  -> 17-1A    7.035090   56741.8   176.2   -0.45196  -0.09253  -0.05661   0.15865
  0-1A  -> 18-1A    7.146318   57638.9   173.5   -0.82913  -0.00020   0.49233   0.15003
  0-1A  -> 19-1A    7.291244   58807.9   170.0    1.91754  -0.10223  -0.01667   0.07460
  0-1A  -> 20-1A    7.324394   59075.2   169.3    3.20016  -0.00159   0.31719   0.11743
  0-1A  -> 21-1A    7.355667   59327.5   168.6   -4.57521  -0.02964   0.16791  -0.15780
  0-1A  -> 22-1A    7.373471   59471.1   168.1   -0.58947   0.01630   0.40833   0.17295

Total run time:      727.044 sec

           *** ORCA-CIS/TD-DFT FINISHED WITHOUT ERROR ***
-----------------------
CIS/TD-DFT TOTAL ENERGY
-----------------------

    E(SCF)  =   -999.823548410 Eh
    DE(CIS) =      0.144567421 Eh (Root  1)
    ----------------------------- ---------
    E(tot)  =   -999.678980990 Eh


Maximum memory used throughout the entire CIS-calculation: 797.2 MB
=> NOW LEAVING ORCA_CIS

-------------------------   --------------------
FINAL SINGLE POINT ENERGY      -999.678980989538
-------------------------   --------------------



           ************************************************************
           *        Program running with 4 parallel MPI-processes     *
           *              working on a common directory               *
           ************************************************************

------------------------------------------------------------------------------
                              ORCA PROPERTY CALCULATIONS
------------------------------------------------------------------------------

GBWName                                 ... td.gbw
Number of atoms                         ...     45
Number of basis functions               ...    432
Max core memory                         ...   2500 MB

Electric properties:
Dipole moment                           ... YES
Quadrupole moment                       ...  NO
Static polarizability (Dipole/Dipole)   ...  NO
Static polarizability (Dipole/Quad.)    ...  NO
Static polarizability (Quad./Quad.)     ...  NO
Static polarizability (Velocity)        ...  NO
Static hyperpolarizability              ...  NO

Atomic electric properties:
Dipole moment                           ...  NO
Quadrupole moment                       ...  NO
Static polarizability                   ...  NO

Choice of electric origin               ... Center of mass
Position of electric origin             ...     1.241688    -0.119830     0.405725

General magnetic properties:
Magnetizability                         ...  NO

EPR properties:
g-Tensor (aka g-matrix)                 ...  NO
Zero-Field splitting spin-orbit         ...  NO
Zero-field splitting spin-spin          ...  NO
Hyperfine couplings                     ...  NO (   0 nuclei)
Quadrupole couplings                    ...  NO (   0 nuclei)
Contact density                         ...  NO (   0 nuclei)

NMR properties:
Chemical shifts                         ...  NO (   0 nuclei)
Spin-rotation constants                 ...  NO (   0 nuclei)
Spin-spin couplings                     ...  NO (   0 nuclei,    0 pairs)

Choice of magnetic origin               ... GIAO
Position of magnetic origin             ...     0.000000     0.000000     0.000000

Properties with geometric perturbations:
SCF Hessian                             ...  NO
IR spectrum                             ...  NO
VCD spectrum                            ...  NO
X-ray spectroscopy properties:
SCF XES/XAS/RIXS spectra                ...  NO

SCF SOC stabilization energy            ...  NO
Diagonal Born-Oppenheimer correction    ...  NO

-------------
DIPOLE MOMENT
-------------

Method             : SCF
Type of density    : Electron Density
Multiplicity       :   1
Irrep              :   0
Energy             :  -999.8235484104677653 Eh
Basis              : AO
                                X                 Y                 Z
Electronic contribution:     27.885324909      -2.166391099       7.122852194
Nuclear contribution   :    -27.272600897       2.633328417      -8.641612858
                        -----------------------------------------
Total Dipole Moment    :      0.612724012       0.466937318      -1.518760664
                        -----------------------------------------
Magnitude (a.u.)       :      1.702966567
Magnitude (Debye)      :      4.328597014



--------------------
Rotational spectrum 
--------------------
 
Rotational constants in cm-1:             0.025258             0.002513             0.002322 
Rotational constants in MHz :           757.228514            75.343991            69.618829 

Dipole components along the rotational axes: 
x,y,z [a.u.] :     0.717385    -1.544413     0.015586 
x,y,z [Debye]:     1.823447    -3.925586     0.039616 

 

Dipole moment calculation done in   0.1 sec 

Maximum memory used throughout the entire PROP-calculation: 22.6 MB

--------------------------------
SUGGESTED CITATIONS FOR THIS RUN
--------------------------------

Below you find a list of papers that are relevant to this ORCA run
We neither can nor want to force you to cite these papers, but we appreciate if you do
You receive ORCA, which is the product of decades of hard work by many enthusiastic individuals, for free
The only thing we kindly ask in return is that you cite our papers,
We deeply appreciate it, if you show your appreciation for ORCA by not just citing the generic ORCA reference.

Please note that relegating all ORCA citations to the supporting information does *not* help us.
SI sections are not indexed - citations you put there will not count into any citation statistics
But we need these citations in order to attract the funding resources that allow us to do what we are doing

Therefore, if you are a happy ORCA user, please consider citing a few of the papers listed below in the main body of your paper

In addition to the list printed below, the program has created the file td.bibtex that contains the list in bibtex format
You can import this file easily into all common literature databanks and citation aid programs

It goes without saying that in many instances, there are alternative algorithms to achieve similar
results as the ones you have gotten from ORCA. It is, of course, also the case that in some instances
ORCA just re-implements algorithms worked out by others. We are fully aware of that and we are also
fully appreciative of our colleagues work. Hence this citation list should not be read as indicating
that the listed papers, which are focused on our own work, are the only ones worth citing. It simply
meant to make it easier for users to cite ORCA specific papers. It is not a substitute for doing your
own literature research and citing the relevant literature in a scientifically appropriate manner.

List of essential papers. We consider these as the minimum necessary citations

  1. Neese, F.
     Software update: the ORCA program system, version 6.0
     WIRES Comput. Molec. Sci. 2025 15(1), e70019
     doi.org/10.1002/wcms.70019

List of papers to cite with high priority. The work reported in these papers was absolutely
necessary for this run to complete.
Our perspective: the developers of density functionals and basis sets usually get cited in chemistry papers
Good! But without the algorithms to do something with them, the functionals or basis sets would not do anything.
Hence, in our opinion, the algorithm design and method developments papers are equally worthy of getting cited

  1. Neese, F.; Olbrich, G.
     Efficient use of the resolution of the identity approximation in time-dependent density functional calculations with hybrid density functionals
     Chem. Phys. Lett. 2002 362 , 170-178
     doi.org/10.1016/s0009-2614(02)01053-9
  2. Neese, F.
     An improvement of the resolution of the identity approximation for the formation of the Coulomb matrix
     J. Comp. Chem. 2003 24(14), 1740-1747
     doi.org/10.1002/jcc.10318
  3. Neese, F.; Wennmohs, F.; Hansen, A.; Becker, U.
     Efficient, approximate and parallel Hartree-Fock and hybrid DFT calculations. A 'chain-of-spheres' algorithm for the Hartree-Fock exchange
     Chem. Phys. 2009 356(1-3), 98-109
     doi.org/10.1016/j.chemphys.2008.10.036
  4. Garcia-Rates, M.; Neese, F.
     Effect of the Solute Cavity on the Solvation Energy and its Derivatives within the Framework of the Gaussian Charge Scheme
     J. Comput. Chem. 2020 41 , 922-939
     doi.org/10.1002/jcc.26139
  5. Helmich-Paris, B.; de Souza, B.; Neese, F.; Izsák, R.
     An improved chain of spheres for exchange algorithm
     J. Chem. Phys. 2021 155(10), 104109
     doi.org/10.1063/5.0058766
  6. Neese, F.
     The SHARK Integral Generation and Digestion System
     J. Comp. Chem. 2022 44(3), 381
     doi.org/10.1002/jcc.26942

List of suggested additional citations. These are papers that are important in the 'surrounding' of 
of this run, or papers that preceded the highly important papers. If you like your results we are grateful for a citation.

  1. Izsak, R.; Neese, F.
     An overlap fitted chain of spheres exchange method
     J. Chem. Phys. 2011 135 , 144105
     doi.org/10.1063/1.3646921
  2. Izsak, R.; Hansen, A.; Neese, F.
     The resolution of identity and chain of spheres approximations for the LPNO-CCSD singles Fock term
     Molec. Phys. 2012 110 , 2413-2417
     doi.org/10.1080/00268976.2012.687466
  3. Neese, F.
     The ORCA program system
     WIRES Comput. Molec. Sci. 2012 2(1), 73-78
     doi.org/10.1002/wcms.81
  4. Izsak, R.; Neese, F.; Klopper, W.
     Robust fitting techniques in the chain of spheres approximation to the Fock exchange: The role of the complementary space
     J. Chem. Phys. 2013 139 , 
     doi.org/10.1063/1.4819264
  5. Neese, F.
     Software update: the ORCA program system, version 4.0
     WIRES Comput. Molec. Sci. 2018 8(1), 1-6
     doi.org/10.1002/wcms.1327
  6. Neese, F.; Wennmohs, F.; Becker, U.; Riplinger, C.
     The ORCA quantum chemistry program package
     J. Chem. Phys. 2020 152(22), 224108
     doi.org/10.1063/5.0004608
  7. Neese, F.
     Software update: The ORCA program system—Version 5.0
     WIRES Comput. Molec. Sci. 2022 12(1), e1606
     doi.org/10.1002/wcms.1606

List of optional additional citations

  1. Neese, F.
     Approximate second-order SCF convergence for spin unrestricted wavefunctions
     Chem. Phys. Lett. 2000 325(1-3), 93-98
     doi.org/10.1016/s0009-2614(00)00662-x

Timings for individual modules:

Sum of individual times          ...     1044.014 sec (=  17.400 min)
Startup calculation              ...       19.661 sec (=   0.328 min)   1.9 %
SCF iterations                   ...      295.455 sec (=   4.924 min)  28.3 %
Property integrals               ...        0.756 sec (=   0.013 min)   0.1 %
Property calculations            ...        0.727 sec (=   0.012 min)   0.1 %
CIS module                       ...      727.415 sec (=  12.124 min)  69.7 %
                             ****ORCA TERMINATED NORMALLY****
TOTAL RUN TIME: 0 days 0 hours 17 minutes 25 seconds 823 msec
