
                                 *****************
                                 * O   R   C   A *
                                 *****************

                                            #,                                       
                                            ###                                      
                                            ####                                     
                                            #####                                    
                                            ######                                   
                                           ########,                                 
                                     ,,################,,,,,                         
                               ,,#################################,,                 
                          ,,##########################################,,             
                       ,#########################################, ''#####,          
                    ,#############################################,,   '####,        
                  ,##################################################,,,,####,       
                ,###########''''           ''''###############################       
              ,#####''   ,,,,##########,,,,          '''####'''          '####       
            ,##' ,,,,###########################,,,                        '##       
           ' ,,###''''                  '''############,,,                           
         ,,##''                                '''############,,,,        ,,,,,,###''
      ,#''                                            '''#######################'''  
     '                                                          ''''####''''         
             ,#######,   #######,   ,#######,      ##                                
            ,#'     '#,  ##    ##  ,#'     '#,    #''#        ,####,    ,#,          
            ##       ##  ##   ,#'  ##            #'  '#       #'       ,# #          
            ##       ##  #######   ##           ,######,      #####,      #          
            '#,     ,#'  ##    ##  '#,     ,#' ,#      #,     #,   #      #          
             '#######'   ##     ##  '#######'  #'      '#     '####' #    #          



                #########################################################
                #                        -***-                          #
                #          Department of theory and spectroscopy        #
                #                                                       #
                #                      Frank Neese                      #
                #                                                       #
                #     Directorship, Architecture, Infrastructure        #
                #                    SHARK, DRIVERS                     #
                #        Core code/Algorithms in most modules           #
                #                                                       #
                #        Max Planck Institute fuer Kohlenforschung      #
                #                Kaiser Wilhelm Platz 1                 #
                #                 D-45470 Muelheim/Ruhr                 #
                #                      Germany                          #
                #                                                       #
                #                  All rights reserved                  #
                #                        -***-                          #
                #########################################################


                         Program Version 6.1.1  -  RELEASE   -


 With contributions from (in alphabetic order):
[Max-Planck-Institut fuer Kohlenforschung]                               
  Daniel Aravena         : Magnetic Suceptibility                        
  Michael Atanasov       : Ab Initio Ligand Field Theory (pilot matlab implementation)
  Alexander A. Auer      : GIAO ZORA, VPT2 properties, NMR spectrum      
  Ute Becker             : All parallelization in ORCA, NUMFREQ, NUMCALC 
  Giovanni Bistoni       : ED, misc. LED, open-shell LED, HFLD           
  Dmytro Bykov           : pre 5.0 version of the SCF Hessian            
  Marcos Casanova-Páez   : Triplet and SCS-CIS(D). UHF-(DLPNO)-IP/EA/STEOM-CCSD. UHF-CVS-IP/STEOM-CCSD   
  Vijay G. Chilkuri      : MRCI spin determinant printing, contributions to CSF-ICE 
  Pauline Colinet        : FMM embedding                                 
  Dipayan Datta          : RHF DLPNO-CCSD density                        
  Achintya Kumar Dutta   : EOM-CC, STEOM-CC                              
  Nicolas Foglia         : Exact transition moments, OPA infrastructure, MCD improvements    
  Dmitry Ganyushin       : Spin-Orbit,Spin-Spin,Magnetic field MRCI      
  Miquel Garcia-Rates    : C-PCM and meta-GGA Hessian, CCSD/C-PCM, Gaussian charge scheme 
  Tiago L. C. Gouveia    : GS-ROHF, GS-ROCIS                             
  Yang Guo               : DLPNO-NEVPT2, F12-NEVPT2, CIM, IAO-localization        
  Andreas Hansen         : Spin unrestricted coupled pair/coupled cluster methods 
  Ingolf Harden          : AUTO-CI MPn and infrastructure                
  Benjamin Helmich-Paris : MC-RPA, TRAH-(SCF,CASSCF), AVAS, COSX integrals, SCF dyn. polar., MC-PDFT, srDFT 
  Lee Huntington         : MR-EOM, pCC                                   
  Robert Izsak           : Overlap fitted RIJCOSX, COSX-SCS-MP3, EOM     
  Riya Kayal             : Wick's Theorem for AUTO-CI, AUTO-CI UHF-CCSDT 
  Emily Kempfer          : AUTO-CI RHF CISDT and CCSDT, approximate NEVPT4
  Christian Kollmar      : KDIIS, OOCD, Brueckner-CCSD(T), CCSD density, CASPT2, CASPT2-K, improved NEVPT2 
  Axel Koslowski         : Symmetry handling                             
  Simone Kossmann        : meta-GGA functionals, TD-DFT gradient, OOMP2, (MP2 Hessian; deprecated post 5.0) 
  Lucas Lang             : DCDCAS, Hyperfine gauge corrections, ICE-SOC+SSC
  Marvin Lechner         : AUTO-CI (C++ implementation), FIC-MRCC        
  Spencer Leger          : CASSCF response                               
  Dagmar Lenk            : GEPOL surface, SMD, ORCA-2-JSON               
  Dimitrios Liakos       : Extrapolation schemes; Compound Job, Property file
  Dimitrios Manganas     : Further ROCIS development; embedding schemes. LFT, Crystal Embedding 
  Dimitrios Pantazis     : SARC Basis sets                               
  Anastasios Papadopoulos: AUTO-CI, single reference methods and gradients 
  Taras Petrenko         : pre 6.0 DFT Hessian and TD-DFT gradient,  ECA, NRVS 
  Petra Pikulova         : Analytic Raman intensities                    
  Peter Pinski           : DLPNO-MP2, DLPNO-MP2 Gradient                 
  Shashank Vittal Rao    : ES-AILFT, MagRelax                            
  Christoph Reimann      : Effective Core Potentials                     
  Marius Retegan         : Local ZFS, SOC                                
  Christoph Riplinger    : Optimizer, TS searches, QM/MM, DLPNO-CCSD(T), (RO)-DLPNO pert. Triples 
  Michael Roemelt        : Original ROCIS implementation, recursive CI coupling coefficients
  Masaaki Saitow         : Open-shell DLPNO-CCSD energy and density      
  Barbara Sandhoefer     : DKH picture change effects                    
  Yorick L. A. Schmerwitz: GMF and freeze-and-release deltaSCF, NEB S-IDPP initial path                    
  Kantharuban Sivalingam : CASSCF convergence/infrastructure, NEVPT2, NEVPT3, NEVPT4(SD), FIC-MRCI and CEPA variants
  Bernardo de Souza      : ESD, SOC TD-DFT                               
  Georgi L. Stoychev     : AutoAux, RI-MP2 NMR, DLPNO-MP2 response, X2C  
  Van Anh Tran           : RI-MP2 g-tensors                              
  Willem Van den Heuvel  : Paramagnetic NMR                              
  Zikuan Wang            : NOTCH, Electric field optimization            
  Frank Wennmohs         : Technical directorship and infrastructure     
  Hang Xu                : AUTO-CI-Response properties                   
                                                                         
[FACCTs GmbH]                                                            
  Markus Bursch, Nicolas Foglia, Miquel Garcia-Rates, Ingolf Harden, Hagen Neugebauer, Anastasios Papadopoulos, 
  Christoph Riplinger, Bernardo de Souza, Georgi L. Stoychev                                                    
                                                                 
  APM, various basis sets, CI-OPT, improved COSX, DLPNO-Multilevel,           
  DOCKER, DRACO, updates on ESD, Fragmentator, GOAT, IRC, LR-CPCM, L-BFGS, MBIS, meta-GGA TD-DFT gradient, ML-optimized integration grids, 
  MM, NACMEs, nearIR, NEB, NEB-TS, NL-DFT gradient (VV10), 2- and 3-layer-ONIOM, interface openCOSMO-RS, QMMM,   
  Crystal-QMMM, RESP, rigid body optimization, SF, symmetry and pop. for TD-DFT, various functionals, SOLVATOR                                   
                                                                         
[Other institutions]                                                     
  V. Asgeirsson          : NEB                                           
  Christoph Bannwarth    : sTDA-DFT, sTD-DFT, PBEh-3c, B97-3c, D3        
  Giovanni Bistoni       : ETS/NOCV, ADLD/ADEX, COVALED                  
  Martin Brehm           : Molecular dynamics                            
  Ronald Cardenas        : ETS/NOCV                                      
  Martina Colucci        : COVALED                                       
  Sebastian Ehlert       : rSCAN, r2SCAN, r2SCAN-3c, D4, dhf basis sets  
  Marvin Friede          : D4 for Fr, Ra, Ac-Lr                          
  Lars Goerigk           : TD-DFT with DH, B97 family of functionals     
  Stefan Grimme          : VdW corrections, initial TS optimization, DFT functionals, gCP, sTDA/sTD-DF 
  Waldemar Hujo          : DFT-NL                                        
  H. Jonsson             : NEB                                           
  Holger Kruse           : gCP                                           
  Marcel Mueller         : wB97X-3c, vDZP basis set                      
  Hagen Neugebauer       : wr2SCAN, Native XTB                           
  Gianluca Regni         : ADLD/ADEX                                     
  Tobias Risthaus        : pre 6.0 range-separated hybrid DFT and stability analysis
  Lukas Wittmann         : regularized MP2, r2SCAN double-hybrids, wr2SCAN        
                                                                         
We gratefully acknowledge several colleagues who have allowed us to      
interface, adapt or use parts of their codes:                            
  Ed Valeev, F. Pavosevic, A. Kumar             : LibInt (2-el integral package), F12 methods 
  Garnet Chan, S. Sharma, J. Yang, R. Olivares  : DMRG                   
  Ulf Ekstrom                                   : XCFun DFT Library      
  Mihaly Kallay                                 : mrcc  (arbitrary order and MRCC methods)
  Frank Weinhold                                : gennbo (NPA and NBO analysis)           
  Simon Mueller                                 : openCOSMO-RS                            
  Christopher J. Cramer and Donald G. Truhlar   : smd solvation model                     
  S Lehtola, MJT Oliveira, MAL Marques          : LibXC Library                           
  Liviu Ungur et al                             : ANISO software                          


 Your calculation uses the libint2 library for the computation of 2-el integrals
 For citations please refer to: http://libint.valeyev.net

 Your ORCA version has been built with support for libXC version: 7.0.0
 For citations please refer to: https://libxc.gitlab.io

 This ORCA versions uses:
   CBLAS   interface :  Fast vector & matrix operations
   LAPACKE interface :  Fast linear algebra routines
   Shared memory     :  Shared parallel matrices


  ***********************************
  * Starting time: Thu Jul 23 15:26:29 2026
  * Host name:     DESKTOP-19Q153E
  * Process ID:    14588
  * Working dir.:  C:\Users\ysm04\Documents\etc\uv_vis\molecules\dhhb\calculations\02_tddft_orca\dhhb\dhhb_c131\b3lyp_631+gd\ethanol\dftopt
  ***********************************

NOTE: MaxCore=2500 MB was set to SCF,MP2,MDCI,CIPSI,MRCI,RASCI and CIS
      => If you want to overwrite this, your respective input block should be placed after the MaxCore statement
================================================================================

----- Orbital basis set information -----
Your calculation utilizes the basis: 6-31+G(d)
   H-He, Li-Ne : W. J. Hehre, R. Ditchfield and J.A. Pople, J. Chem. Phys. 56, 2257 (1972).
                 Note: He and Ne are unpublished basis sets taken from the Gaussian program.
                 Note: Li and B from J. D. Dill and J. A. Pople, J. Chem. Phys. 62, 2921 (1975).
   Na - Ar     : M. M. Francl, W. J. Pietro, W. J. Hehre, J. S. Binkley, M. S. Gordon, 
                 D. J. DeFrees and J. A. Pople, J. Chem. Phys. 77, 3654 (1982).
   K - Zn      : V. A. Rassolov, J. A. Pople, M. A. Ratner, and T. L. Windus, J. Chem. Phys. 109, 1223 (1998).
   Additional Pol./Diff. from the 6-311G equivalent.

----- AuxJ basis set information -----
Your calculation utilizes the auxiliary basis: def2/J
   H-Rn: F. Weigend, Phys. Chem. Chem. Phys. 8, 1057 (2006).
   Fr-Lr: K. Eichkorn, F. Weigend, O. Treutler, R. Ahlrichs; Theor. Chem. Acc. 97, 119 (1997).

================================================================================
                                        WARNINGS
                       Please study these warnings very carefully!
================================================================================


WARNING: CIS/ROCIS methods need fully converged wavefunctions
  ===> : Setting SCFConvForced true
         You can overwrite this default with %scf ConvForced false 


================================================================================
                                       INPUT FILE
================================================================================
NAME = td.inp
|  1> # dhhb / dhhb_c131 / b3lyp_631+gd / solvent=ethanol
|  2> ! B3LYP 6-31+G(d) RIJCOSX def2/J TightSCF CPCM(Ethanol)
|  3> %pal nprocs 4 end
|  4> %maxcore 2500
|  5> %scf
|  6>   MaxIter 300
|  7> end
|  8> %tddft
|  9>   nroots 22
| 10>   tda    true
| 11>   maxdim 5
| 12> end
| 13> * xyz 0 1
| 14> C      7.6142257245     2.0836866729    -0.0492499745
| 15> C      8.6093409730     0.9195423295    -0.0800952432
| 16> C      7.9826119352    -0.4579632506    -0.3467106696
| 17> C      7.0723697184    -0.9727050912     0.7767739453
| 18> C      6.4971296345    -2.3771709614     0.5368507306
| 19> C      5.4557912596    -2.4754671098    -0.5658640784
| 20> O      4.2861675984    -1.7317235095    -0.1550400704
| 21> C      3.2862227351    -1.6097312104    -1.0348777733
| 22> O      3.3235563551    -2.0728727813    -2.1579168351
| 23> C      2.1213125628    -0.8466762791    -0.4864304037
| 24> C      1.0261719479    -0.6090427569    -1.3313892959
| 25> C     -0.0918864290     0.0813129848    -0.8629751589
| 26> C     -0.1304658097     0.5549181719     0.4606717630
| 27> C      0.9808790872     0.3384525491     1.2957468962
| 28> C      2.0907696127    -0.3665708218     0.8344544906
| 29> C     -1.2707020120     1.3767210859     0.9964498654
| 30> O     -0.9674908340     2.4124970458     1.6321037747
| 31> C     -2.6552624389     0.9881982865     0.7996467734
| 32> C     -3.0695486258    -0.2497754203     0.2401539105
| 33> C     -4.3950105568    -0.5818296073     0.0618925976
| 34> C     -5.4398257075     0.3253415732     0.4447428603
| 35> C     -5.0428481458     1.5581059067     1.0226244033
| 36> C     -3.6998568739     1.8820861525     1.2170538578
| 37> O     -3.4098749363     3.0518897273     1.7982088198
| 38> N     -6.7591825490     0.0007366075     0.2809381258
| 39> C     -7.1659173549    -1.2724030286    -0.3251539684
| 40> C     -7.1514832424    -1.2931052368    -1.8569344799
| 41> C     -7.8240985821     0.9389864407     0.6511824494
| 42> C     -8.1226339609     2.0235136936    -0.3895658195
| 43> H      7.0556701963     2.1544152474    -0.9988718852
| 44> H      6.8752231053     1.9762167353     0.7618149100
| 45> H      8.1317505001     3.0451018844     0.1039678770
| 46> H      9.1651382606     0.8845601419     0.8756222516
| 47> H      9.3655934505     1.1174999258    -0.8605360611
| 48> H      7.4219586185    -0.4156755967    -1.2990404414
| 49> H      8.7928228147    -1.1931105437    -0.5054159610
| 50> H      6.2398404855    -0.2683035696     0.9448298739
| 51> H      7.6498265196    -0.9908448037     1.7184305333
| 52> H      7.3123746537    -3.0755990112     0.2766583168
| 53> H      6.0472682444    -2.7607296096     1.4688637675
| 54> H      5.1573397894    -3.5215624473    -0.7417920427
| 55> H      5.8143150936    -2.0668699187    -1.5233121329
| 56> H      1.0626103966    -0.9697384550    -2.3611872533
| 57> H     -0.9264304671     0.2732929319    -1.5401200948
| 58> H      0.9639922656     0.7243608716     2.3172698535
| 59> H      2.9386163572    -0.5455016285     1.4969847303
| 60> H     -2.3145249858    -0.9822591276    -0.0490391149
| 61> H     -4.6327086488    -1.5496514968    -0.3745295848
| 62> H     -5.7708114697     2.2988403846     1.3476370176
| 63> H     -2.4130407585     3.0729475282     1.8881812584
| 64> H     -6.5297561269    -2.0800043503     0.0690348481
| 65> H     -8.1826675985    -1.4872956852     0.0354319681
| 66> H     -7.8480725690    -0.5496751048    -2.2743903548
| 67> H     -6.1464703318    -1.0810661652    -2.2544978620
| 68> H     -7.4573568533    -2.2881070497    -2.2195759337
| 69> H     -8.7308575296     0.3421431456     0.8284501041
| 70> H     -7.5738231219     1.4040134764     1.6177948047
| 71> H     -8.9232990609     2.6842671165    -0.0189847737
| 72> H     -7.2373244807     2.6460906577    -0.5926015153
| 73> H     -8.4576578338     1.5832923534    -1.3415092043
| 74> *
| 75> 
| 76>                          ****END OF INPUT****
================================================================================

                       ****************************
                       * Single Point Calculation *
                       ****************************

---------------------------------
CARTESIAN COORDINATES (ANGSTROEM)
---------------------------------
  C      7.614226    2.083687   -0.049250
  C      8.609341    0.919542   -0.080095
  C      7.982612   -0.457963   -0.346711
  C      7.072370   -0.972705    0.776774
  C      6.497130   -2.377171    0.536851
  C      5.455791   -2.475467   -0.565864
  O      4.286168   -1.731724   -0.155040
  C      3.286223   -1.609731   -1.034878
  O      3.323556   -2.072873   -2.157917
  C      2.121313   -0.846676   -0.486430
  C      1.026172   -0.609043   -1.331389
  C     -0.091886    0.081313   -0.862975
  C     -0.130466    0.554918    0.460672
  C      0.980879    0.338453    1.295747
  C      2.090770   -0.366571    0.834454
  C     -1.270702    1.376721    0.996450
  O     -0.967491    2.412497    1.632104
  C     -2.655262    0.988198    0.799647
  C     -3.069549   -0.249775    0.240154
  C     -4.395011   -0.581830    0.061893
  C     -5.439826    0.325342    0.444743
  C     -5.042848    1.558106    1.022624
  C     -3.699857    1.882086    1.217054
  O     -3.409875    3.051890    1.798209
  N     -6.759183    0.000737    0.280938
  C     -7.165917   -1.272403   -0.325154
  C     -7.151483   -1.293105   -1.856934
  C     -7.824099    0.938986    0.651182
  C     -8.122634    2.023514   -0.389566
  H      7.055670    2.154415   -0.998872
  H      6.875223    1.976217    0.761815
  H      8.131751    3.045102    0.103968
  H      9.165138    0.884560    0.875622
  H      9.365593    1.117500   -0.860536
  H      7.421959   -0.415676   -1.299040
  H      8.792823   -1.193111   -0.505416
  H      6.239840   -0.268304    0.944830
  H      7.649827   -0.990845    1.718431
  H      7.312375   -3.075599    0.276658
  H      6.047268   -2.760730    1.468864
  H      5.157340   -3.521562   -0.741792
  H      5.814315   -2.066870   -1.523312
  H      1.062610   -0.969738   -2.361187
  H     -0.926430    0.273293   -1.540120
  H      0.963992    0.724361    2.317270
  H      2.938616   -0.545502    1.496985
  H     -2.314525   -0.982259   -0.049039
  H     -4.632709   -1.549651   -0.374530
  H     -5.770811    2.298840    1.347637
  H     -2.413041    3.072948    1.888181
  H     -6.529756   -2.080004    0.069035
  H     -8.182668   -1.487296    0.035432
  H     -7.848073   -0.549675   -2.274390
  H     -6.146470   -1.081066   -2.254498
  H     -7.457357   -2.288107   -2.219576
  H     -8.730858    0.342143    0.828450
  H     -7.573823    1.404013    1.617795
  H     -8.923299    2.684267   -0.018985
  H     -7.237324    2.646091   -0.592602
  H     -8.457658    1.583292   -1.341509

----------------------------
CARTESIAN COORDINATES (A.U.)
----------------------------
  NO LB      ZA    FRAG     MASS         X           Y           Z
   0 C     6.0000    0    12.011   14.388801    3.937597   -0.093069
   1 C     6.0000    0    12.011   16.269297    1.737683   -0.151358
   2 C     6.0000    0    12.011   15.084950   -0.865425   -0.655188
   3 C     6.0000    0    12.011   13.364842   -1.838146    1.467890
   4 C     6.0000    0    12.011   12.277796   -4.492202    1.014501
   5 C     6.0000    0    12.011   10.309951   -4.677955   -1.069328
   6 O     8.0000    0    15.999    8.099683   -3.272483   -0.292983
   7 C     6.0000    0    12.011    6.210061   -3.041951   -1.955636
   8 O     8.0000    0    15.999    6.280611   -3.917162   -4.077872
   9 C     6.0000    0    12.011    4.008700   -1.599986   -0.919220
  10 C     6.0000    0    12.011    1.939184   -1.150924   -2.515961
  11 C     6.0000    0    12.011   -0.173640    0.153659   -1.630787
  12 C     6.0000    0    12.011   -0.246545    1.048643    0.870543
  13 C     6.0000    0    12.011    1.853593    0.639583    2.448607
  14 C     6.0000    0    12.011    3.950982   -0.692718    1.576890
  15 C     6.0000    0    12.011   -2.401279    2.601626    1.883017
  16 O     8.0000    0    15.999   -1.828293    4.558959    3.084229
  17 C     6.0000    0    12.011   -5.017719    1.867424    1.511113
  18 C     6.0000    0    12.011   -5.800606   -0.472007    0.453825
  19 C     6.0000    0    12.011   -8.305366   -1.099499    0.116960
  20 C     6.0000    0    12.011  -10.279781    0.614806    0.840442
  21 C     6.0000    0    12.011   -9.529602    2.944393    1.932480
  22 C     6.0000    0    12.011   -6.991716    3.556627    2.299898
  23 O     8.0000    0    15.999   -6.443730    5.767236    3.398122
  24 N     7.0000    0    14.007  -12.773004    0.001392    0.530896
  25 C     6.0000    0    12.011  -13.541621   -2.404493   -0.614452
  26 C     6.0000    0    12.011  -13.514345   -2.443615   -3.509098
  27 C     6.0000    0    12.011  -14.785404    1.774427    1.230556
  28 C     6.0000    0    12.011  -15.349554    3.823887   -0.736173
  29 H     1.0000    0     1.008   13.333284    4.071255   -1.887594
  30 H     1.0000    0     1.008   12.992289    3.734508    1.439622
  31 H     1.0000    0     1.008   15.366781    5.754409    0.196471
  32 H     1.0000    0     1.008   17.319601    1.671576    1.654686
  33 H     1.0000    0     1.008   17.698407    2.111769   -1.626177
  34 H     1.0000    0     1.008   14.025469   -0.785513   -2.454831
  35 H     1.0000    0     1.008   16.616027   -2.254652   -0.955098
  36 H     1.0000    0     1.008   11.791590   -0.507020    1.785470
  37 H     1.0000    0     1.008   14.456077   -1.872425    3.247363
  38 H     1.0000    0     1.008   13.818385   -5.812040    0.522808
  39 H     1.0000    0     1.008   11.427681   -5.217023    2.775750
  40 H     1.0000    0     1.008    9.745960   -6.654789   -1.401784
  41 H     1.0000    0     1.008   10.987463   -3.905818   -2.878643
  42 H     1.0000    0     1.008    2.008043   -1.832540   -4.461997
  43 H     1.0000    0     1.008   -1.750700    0.516449   -2.910405
  44 H     1.0000    0     1.008    1.821681    1.368844    4.379005
  45 H     1.0000    0     1.008    5.553180   -1.030849    2.828891
  46 H     1.0000    0     1.008   -4.373818   -1.856201   -0.092670
  47 H     1.0000    0     1.008   -8.754551   -2.928417   -0.707758
  48 H     1.0000    0     1.008  -10.905253    4.344179    2.546665
  49 H     1.0000    0     1.008   -4.559986    5.807029    3.568145
  50 H     1.0000    0     1.008  -12.339451   -3.930639    0.130457
  51 H     1.0000    0     1.008  -15.463001   -2.810582    0.066957
  52 H     1.0000    0     1.008  -14.830708   -1.038735   -4.297975
  53 H     1.0000    0     1.008  -11.615146   -2.042919   -4.260384
  54 H     1.0000    0     1.008  -14.092362   -4.323896   -4.194391
  55 H     1.0000    0     1.008  -16.498930    0.646557    1.565544
  56 H     1.0000    0     1.008  -14.312451    2.653201    3.057189
  57 H     1.0000    0     1.008  -16.862591    5.072530   -0.035876
  58 H     1.0000    0     1.008  -13.676561    5.000387   -1.119855
  59 H     1.0000    0     1.008  -15.982657    2.991989   -2.535085

--------------------------------
INTERNAL COORDINATES (ANGSTROEM)
--------------------------------
 C      0   0   0     0.000000000000     0.00000000     0.00000000
 C      1   0   0     1.531808682789     0.00000000     0.00000000
 C      2   1   0     1.536683017288   114.82202751     0.00000000
 C      3   2   1     1.534834758411   114.55126875   292.77333611
 C      4   3   2     1.536550904993   114.47337311   182.61979378
 C      5   4   3     1.519877525927   115.39777696   289.96558795
 O      6   5   4     1.445666080869   108.35301126   293.85645928
 C      7   6   5     1.337492517409   117.70094411   175.06621576
 O      8   7   6     1.215364409635   123.37601974   358.86559044
 C      8   7   6     1.496684019735   112.78938100   178.74865030
 C     10   8   7     1.403480739727   118.23181380   177.73957952
 C     11  10   8     1.395011608552   120.46594025   179.11980076
 C     12  11  10     1.406353943969   120.30954921     0.40615913
 C     13  12  11     1.406874309883   119.02397078     0.89656763
 C     14  13  12     1.393450973509   120.69989951   358.23320371
 C     13  12  11     1.504179776990   122.68556383   176.17784881
 O     16  13  12     1.252527345003   116.68338826   227.60974194
 C     16  13  12     1.451443763434   121.90897413    48.11141672
 C     18  16  13     1.420297224887   124.40088058     7.73845053
 C     19  18  16     1.378000874206   122.79008704   180.34586758
 C     20  19  18     1.435678436667   120.88017977   359.82302742
 C     21  20  19     1.418184108000   117.01427538   359.29377989
 C     22  21  20     1.395131380496   121.87757720   359.85624454
 O     23  22  21     1.338010096227   118.17630774   181.57930239
 N     21  20  19     1.368540408616   121.31898575   180.49124879
 C     25  21  20     1.467537175676   121.49326942   358.36008958
 C     26  25  21     1.531988400883   114.96442109   277.93240214
 C     25  21  20     1.466778703899   121.19788168   181.08538924
 C     28  25  21     1.532475022275   115.00504648    81.26530752
 H      1   2   3     1.103978524526   111.10324115   302.04808390
 H      1   2   3     1.102497576206   112.09730704    62.28963672
 H      1   2   3     1.102554675416   111.13475619   182.36034020
 H      2   1   3     1.106133042730   109.45445671   236.98366730
 H      2   1   3     1.104623415424   108.83160144   121.80928521
 H      3   2   1     1.105916986693   108.77719361    56.34786198
 H      3   2   1     1.105473012484   108.79100408   171.22405975
 H      4   3   2     1.103417066391   110.17269046    59.42866584
 H      4   3   2     1.104763565721   108.62893723   303.76678371
 H      5   4   3     1.104593261919   109.78045957    51.06125662
 H      5   4   3     1.103694164098   109.77853338   167.51917202
 H      6   5   4     1.101970681927   111.27133954   174.85228207
 H      6   5   4     1.100998538231   112.57073212    54.02966509
 H     11  10   8     1.091747672421   119.07143734   358.96012093
 H     12  11  10     1.091716682950   119.43427663   178.85070650
 H     14  13  12     1.092117003992   119.24969696   178.62838000
 H     15  14  13     1.090782587990   120.06841687   181.21262489
 H     19  18  16     1.090974648816   119.19400901     1.36987486
 H     20  19  18     1.087954003636   118.45083201   179.94400264
 H     22  21  20     1.088233140070   121.74436464   180.47441425
 H     24  23  22     1.001107810736   105.85637599   177.15646958
 H     26  25  21     1.101047603819   109.16747130    42.12132406
 H     26  25  21     1.099991876935   106.87453028   156.19515336
 H     27  26  25     1.100997029327   111.34756154   298.85441034
 H     27  26  25     1.101393735748   111.52521711    59.68367532
 H     27  26  25     1.102313974117   109.78677338   179.28899785
 H     28  25  21     1.099935238630   106.98384973   203.03412127
 H     28  25  21     1.101466020960   109.06309072   317.22223975
 H     29  28  25     1.102265848032   109.71912416   180.71058286
 H     29  28  25     1.101180478273   111.63625565   300.25426568
 H     29  28  25     1.101014092392   111.31503774    61.20005784

---------------------------
INTERNAL COORDINATES (A.U.)
---------------------------
 C      0   0   0     0.000000000000     0.00000000     0.00000000
 C      1   0   0     2.894698900034     0.00000000     0.00000000
 C      2   1   0     2.903910057323   114.82202751     0.00000000
 C      3   2   1     2.900417354220   114.55126875   292.77333611
 C      4   3   2     2.903660401265   114.47337311   182.61979378
 C      5   4   3     2.872152281104   115.39777696   289.96558795
 O      6   5   4     2.731912973942   108.35301126   293.85645928
 C      7   6   5     2.527494564071   117.70094411   175.06621576
 O      8   7   6     2.296705887124   123.37601974   358.86559044
 C      8   7   6     2.828322906316   112.78938100   178.74865030
 C     10   8   7     2.652194232317   118.23181380   177.73957952
 C     11  10   8     2.636189893805   120.46594025   179.11980076
 C     12  11  10     2.657623801462   120.30954921     0.40615913
 C     13  12  11     2.658607150528   119.02397078     0.89656763
 C     14  13  12     2.633240720979   120.69989951   358.23320371
 C     13  12  11     2.842487834694   122.68556383   176.17784881
 O     16  13  12     2.366933657302   116.68338826   227.60974194
 C     16  13  12     2.742831211679   121.90897413    48.11141672
 C     18  16  13     2.683972783804   124.40088058     7.73845053
 C     19  18  16     2.604044264553   122.79008704   180.34586758
 C     20  19  18     2.713039061677   120.88017977   359.82302742
 C     21  20  19     2.679979571599   117.01427538   359.29377989
 C     22  21  20     2.636416229977   121.87757720   359.85624454
 O     23  22  21     2.528472646291   118.17630774   181.57930239
 N     21  20  19     2.586166575489   121.31898575   180.49124879
 C     25  21  20     2.773243353376   121.49326942   358.36008958
 C     26  25  21     2.895038518012   114.96442109   277.93240214
 C     25  21  20     2.771810049437   121.19788168   181.08538924
 C     28  25  21     2.895958099174   115.00504648    81.26530752
 H      1   2   3     2.086217069085   111.10324115   302.04808390
 H      1   2   3     2.083418482342   112.09730704    62.28963672
 H      1   2   3     2.083526384211   111.13475619   182.36034020
 H      2   1   3     2.090288518441   109.45445671   236.98366730
 H      2   1   3     2.087435736267   108.83160144   121.80928521
 H      3   2   1     2.089880231701   108.77719361    56.34786198
 H      3   2   1     2.089041242036   108.79100408   171.22405975
 H      4   3   2     2.085156066974   110.17269046    59.42866584
 H      4   3   2     2.087700581948   108.62893723   303.76678371
 H      5   4   3     2.087378754402   109.78045957    51.06125662
 H      5   4   3     2.085679705752   109.77853338   167.51917202
 H      6   5   4     2.082422796452   111.27133954   174.85228207
 H      6   5   4     2.080585711104   112.57073212    54.02966509
 H     11  10   8     2.063104108222   119.07143734   358.96012093
 H     12  11  10     2.063045546609   119.43427663   178.85070650
 H     14  13  12     2.063802043744   119.24969696   178.62838000
 H     15  14  13     2.061280362951   120.06841687   181.21262489
 H     19  18  16     2.061643305313   119.19400901     1.36987486
 H     20  19  18     2.055935113174   118.45083201   179.94400264
 H     22  21  20     2.056462604590   121.74436464   180.47441425
 H     24  23  22     1.891819592820   105.85637599   177.15646958
 H     26  25  21     2.080678431628   109.16747130    42.12132406
 H     26  25  21     2.078683396945   106.87453028   156.19515336
 H     27  26  25     2.080582859689   111.34756154   298.85441034
 H     27  26  25     2.081332526180   111.52521711    59.68367532
 H     27  26  25     2.083071524675   109.78677338   179.28899785
 H     28  25  21     2.078576366060   106.98384973   203.03412127
 H     28  25  21     2.081469125434   109.06309072   317.22223975
 H     29  28  25     2.082980579555   109.71912416   180.71058286
 H     29  28  25     2.080929527956   111.63625565   300.25426568
 H     29  28  25     2.080615104208   111.31503774    61.20005784

---------------------
BASIS SET INFORMATION
---------------------
There are 4 groups of distinct atoms

 Group   1 Type C   : 11s5p1d contracted to 4s3p1d pattern {6311/311/1}
 Group   2 Type O   : 11s5p1d contracted to 4s3p1d pattern {6311/311/1}
 Group   3 Type N   : 11s5p1d contracted to 4s3p1d pattern {6311/311/1}
 Group   4 Type H   : 4s contracted to 2s pattern {31}

Atom   0C    basis set group =>   1
Atom   1C    basis set group =>   1
Atom   2C    basis set group =>   1
Atom   3C    basis set group =>   1
Atom   4C    basis set group =>   1
Atom   5C    basis set group =>   1
Atom   6O    basis set group =>   2
Atom   7C    basis set group =>   1
Atom   8O    basis set group =>   2
Atom   9C    basis set group =>   1
Atom  10C    basis set group =>   1
Atom  11C    basis set group =>   1
Atom  12C    basis set group =>   1
Atom  13C    basis set group =>   1
Atom  14C    basis set group =>   1
Atom  15C    basis set group =>   1
Atom  16O    basis set group =>   2
Atom  17C    basis set group =>   1
Atom  18C    basis set group =>   1
Atom  19C    basis set group =>   1
Atom  20C    basis set group =>   1
Atom  21C    basis set group =>   1
Atom  22C    basis set group =>   1
Atom  23O    basis set group =>   2
Atom  24N    basis set group =>   3
Atom  25C    basis set group =>   1
Atom  26C    basis set group =>   1
Atom  27C    basis set group =>   1
Atom  28C    basis set group =>   1
Atom  29H    basis set group =>   4
Atom  30H    basis set group =>   4
Atom  31H    basis set group =>   4
Atom  32H    basis set group =>   4
Atom  33H    basis set group =>   4
Atom  34H    basis set group =>   4
Atom  35H    basis set group =>   4
Atom  36H    basis set group =>   4
Atom  37H    basis set group =>   4
Atom  38H    basis set group =>   4
Atom  39H    basis set group =>   4
Atom  40H    basis set group =>   4
Atom  41H    basis set group =>   4
Atom  42H    basis set group =>   4
Atom  43H    basis set group =>   4
Atom  44H    basis set group =>   4
Atom  45H    basis set group =>   4
Atom  46H    basis set group =>   4
Atom  47H    basis set group =>   4
Atom  48H    basis set group =>   4
Atom  49H    basis set group =>   4
Atom  50H    basis set group =>   4
Atom  51H    basis set group =>   4
Atom  52H    basis set group =>   4
Atom  53H    basis set group =>   4
Atom  54H    basis set group =>   4
Atom  55H    basis set group =>   4
Atom  56H    basis set group =>   4
Atom  57H    basis set group =>   4
Atom  58H    basis set group =>   4
Atom  59H    basis set group =>   4
---------------------------------
AUXILIARY/J BASIS SET INFORMATION
---------------------------------
There are 4 groups of distinct atoms

 Group   1 Type C   : 12s5p4d2f1g contracted to 6s4p3d1f1g pattern {711111/2111/211/2/1}
 Group   2 Type O   : 12s5p4d2f1g contracted to 6s4p3d1f1g pattern {711111/2111/211/2/1}
 Group   3 Type N   : 12s5p4d2f1g contracted to 6s4p3d1f1g pattern {711111/2111/211/2/1}
 Group   4 Type H   : 5s2p1d contracted to 3s1p1d pattern {311/2/1}

Atom   0C    basis set group =>   1
Atom   1C    basis set group =>   1
Atom   2C    basis set group =>   1
Atom   3C    basis set group =>   1
Atom   4C    basis set group =>   1
Atom   5C    basis set group =>   1
Atom   6O    basis set group =>   2
Atom   7C    basis set group =>   1
Atom   8O    basis set group =>   2
Atom   9C    basis set group =>   1
Atom  10C    basis set group =>   1
Atom  11C    basis set group =>   1
Atom  12C    basis set group =>   1
Atom  13C    basis set group =>   1
Atom  14C    basis set group =>   1
Atom  15C    basis set group =>   1
Atom  16O    basis set group =>   2
Atom  17C    basis set group =>   1
Atom  18C    basis set group =>   1
Atom  19C    basis set group =>   1
Atom  20C    basis set group =>   1
Atom  21C    basis set group =>   1
Atom  22C    basis set group =>   1
Atom  23O    basis set group =>   2
Atom  24N    basis set group =>   3
Atom  25C    basis set group =>   1
Atom  26C    basis set group =>   1
Atom  27C    basis set group =>   1
Atom  28C    basis set group =>   1
Atom  29H    basis set group =>   4
Atom  30H    basis set group =>   4
Atom  31H    basis set group =>   4
Atom  32H    basis set group =>   4
Atom  33H    basis set group =>   4
Atom  34H    basis set group =>   4
Atom  35H    basis set group =>   4
Atom  36H    basis set group =>   4
Atom  37H    basis set group =>   4
Atom  38H    basis set group =>   4
Atom  39H    basis set group =>   4
Atom  40H    basis set group =>   4
Atom  41H    basis set group =>   4
Atom  42H    basis set group =>   4
Atom  43H    basis set group =>   4
Atom  44H    basis set group =>   4
Atom  45H    basis set group =>   4
Atom  46H    basis set group =>   4
Atom  47H    basis set group =>   4
Atom  48H    basis set group =>   4
Atom  49H    basis set group =>   4
Atom  50H    basis set group =>   4
Atom  51H    basis set group =>   4
Atom  52H    basis set group =>   4
Atom  53H    basis set group =>   4
Atom  54H    basis set group =>   4
Atom  55H    basis set group =>   4
Atom  56H    basis set group =>   4
Atom  57H    basis set group =>   4
Atom  58H    basis set group =>   4
Atom  59H    basis set group =>   4


           ************************************************************
           *        Program running with 4 parallel MPI-processes     *
           *              working on a common directory               *
           ************************************************************
------------------------------------------------------------------------------
                             ORCA STARTUP CALCULATIONS
                           -- RI-GTO INTEGRALS CHOSEN --
------------------------------------------------------------------------------
------------------------------------------------------------------------------
                   ___                                                        
                  /   \      - P O W E R E D   B Y -                         
                 /     \                                                     
                 |  |  |   _    _      __       _____    __    __             
                 |  |  |  | |  | |    /  \     |  _  \  |  |  /  |          
                  \  \/   | |  | |   /    \    | | | |  |  | /  /          
                 / \  \   | |__| |  /  /\  \   | |_| |  |  |/  /          
                |  |  |   |  __  | /  /__\  \  |    /   |      \           
                |  |  |   | |  | | |   __   |  |    \   |  |\   \          
                \     /   | |  | | |  |  |  |  | |\  \  |  | \   \       
                 \___/    |_|  |_| |__|  |__|  |_| \__\ |__|  \__/        
                                                                              
                      - O R C A' S   B I G   F R I E N D -                    
                                      &                                       
                       - I N T E G R A L  F E E D E R -                       
                                                                              
 v1 FN, 2020, v2 2021, v3 2022-2024                                           
------------------------------------------------------------------------------


----------------------
SHARK INTEGRAL PACKAGE
----------------------

Number of atoms                             ...     60
Number of basis functions                   ...    584
Number of shells                            ...    294
Maximum angular momentum                    ...      2
Integral batch strategy                     ... SHARK/LIBINT Hybrid
RI-J (if used) integral strategy            ... SPLIT-RIJ (Revised 2003 algorithm where possible)
Printlevel                                  ...      1
Contraction scheme used                     ... SEGMENTED contraction
Prescreening option                         ... SCHWARTZ
   Thresh                                   ... 2.500e-11
   Tcut                                     ... 2.500e-12
   Tpresel                                  ... 2.500e-12 
Coulomb Range Separation                    ... NOT USED
Exchange Range Separation                   ... NOT USED
Multipole approximations                    ... NOT USED
Finite Nucleus Model                        ... NOT USED
CABS basis                                  ... NOT available
Auxiliary Coulomb fitting basis             ... AVAILABLE
   # of basis functions in Aux-J            ...   1762
   # of shells in Aux-J                     ...    590
   Maximum angular momentum in Aux-J        ...      4
Auxiliary J/K fitting basis                 ... NOT available
Auxiliary Correlation fitting basis         ... NOT available
Auxiliary 'external' fitting basis          ... NOT available

Checking pre-screening integrals            ... done (  0.0 sec) Dimension = 294
   => SHARK Basis and OBASIS are compatible. Storing Pre-screening
Shell pair information
Shell pair cut-off parameter TPreSel        ...   2.5e-12
Total number of shell pairs                 ...     43365
Shell pairs after pre-screening             ...     27905
Total number of primitive shell pairs       ...    191355
Primitive shell pairs kept                  ...     73095
          la=0 lb=0:   9365 shell pairs
          la=1 lb=0:  10943 shell pairs
          la=1 lb=1:   3114 shell pairs
          la=2 lb=0:   2622 shell pairs
          la=2 lb=1:   1681 shell pairs
          la=2 lb=2:    180 shell pairs

Checking whether 4 symmetric matrices of dimension 584 fit in memory
:Max Core in MB      =   2500.00
 MB in use           =     31.19
 MB left             =   2468.81
 MB needed           =      5.21
 Data fit in memory  = YES
Calculating RI/J V-Matrix + Cholesky decomp.... done (  0.3 sec)
Calculating Nuclear repulsion               ... done (  0.0 sec) ENN=   2552.529093026635 Eh

Diagonalization of the overlap matrix:
Smallest eigenvalue                        ... 1.929e-07
Time for diagonalization                   ...    0.076 sec
Threshold for overlap eigenvalues          ... 1.000e-07
Number of eigenvalues below threshold      ... 0

IMPORTANT:
Smallest eigenvalue of S below the DiffSThresh (1.000e-06) while
Thresh>1e-12 and/or TCut>1e-13! In order to avoid SCF convergence issues,
Thresh will be set to at least 1e-12 and TCut to at least 1e-13.
This can be turned off by adding %SCF DiffSThresh -1 END to the input.

Time for construction of square roots      ...    0.048 sec
Total time needed                          ...    0.130 sec

-------------------
DFT GRID GENERATION
-------------------

General Integration Accuracy     IntAcc      ... 4.388
Radial Grid Type                 RadialGrid  ... OptM3 with GC (2021)
Angular Grid (max. ang.)         AngularGrid ... 4 (Lebedev-302)
Angular grid pruning method      GridPruning ... 4 (adaptive)
Weight generation scheme         WeightScheme... mBecke (2022)
Basis function cutoff            BFCut       ... 1.0000e-11
Integration weight cutoff        WCut        ... 1.0000e-14
Partially contracted basis set               ... off
Rotationally invariant grid construction     ... off
Angular grids for H and He will be reduced by one unit
Diffuse basis detected: some atoms will have their outermost
                        angular grid increased by 1.

Total number of grid points                  ...   278738
Total number of batches                      ...     4383
Average number of points per batch           ...       63
Average number of grid points per atom       ...     4646

--------------------
COSX GRID GENERATION
--------------------

GRIDX 1
-------
General Integration Accuracy     IntAcc      ... 3.816
Radial Grid Type                 RadialGrid  ... OptM3 with GC (2021)
Angular Grid (max. ang.)         AngularGrid ... 1 (Lebedev-50)
Angular grid pruning method      GridPruning ... 4 (adaptive)
Weight generation scheme         WeightScheme... mBecke (2022)
Basis function cutoff            BFCut       ... 1.0000e-11
Integration weight cutoff        WCut        ... 1.0000e-14
Partially contracted basis set               ... on
Rotationally invariant grid construction     ... off
Angular grids for H and He will be reduced by one unit
Diffuse basis detected: some atoms will have their outermost
                        angular grid increased by 1.

Total number of grid points                  ...    35501
Total number of batches                      ...      315
Average number of points per batch           ...      112
Average number of grid points per atom       ...      592
UseSFitting                                  ... on

GRIDX 2
-------
General Integration Accuracy     IntAcc      ... 4.020
Radial Grid Type                 RadialGrid  ... OptM3 with GC (2021)
Angular Grid (max. ang.)         AngularGrid ... 2 (Lebedev-110)
Angular grid pruning method      GridPruning ... 4 (adaptive)
Weight generation scheme         WeightScheme... mBecke (2022)
Basis function cutoff            BFCut       ... 1.0000e-11
Integration weight cutoff        WCut        ... 1.0000e-14
Partially contracted basis set               ... on
Rotationally invariant grid construction     ... off
Angular grids for H and He will be reduced by one unit
Diffuse basis detected: some atoms will have their outermost
                        angular grid increased by 1.

Total number of grid points                  ...    80727
Total number of batches                      ...      663
Average number of points per batch           ...      121
Average number of grid points per atom       ...     1345
UseSFitting                                  ... on

GRIDX 3
-------
General Integration Accuracy     IntAcc      ... 4.338
Radial Grid Type                 RadialGrid  ... OptM3 with GC (2021)
Angular Grid (max. ang.)         AngularGrid ... 3 (Lebedev-194)
Angular grid pruning method      GridPruning ... 4 (adaptive)
Weight generation scheme         WeightScheme... mBecke (2022)
Basis function cutoff            BFCut       ... 1.0000e-11
Integration weight cutoff        WCut        ... 1.0000e-14
Partially contracted basis set               ... on
Rotationally invariant grid construction     ... off
Angular grids for H and He will be reduced by one unit
Diffuse basis detected: some atoms will have their outermost
                        angular grid increased by 1.

Total number of grid points                  ...   173945
Total number of batches                      ...     1390
Average number of points per batch           ...      125
Average number of grid points per atom       ...     2899
UseSFitting                                  ... on
Grids setup in   9.8 sec
Initializing property integral containers    ... done (  0.2 sec)

SHARK setup successfully completed in  11.4 seconds

Maximum memory used throughout the entire STARTUP-calculation: 90.9 MB


           ************************************************************
           *        Program running with 4 parallel MPI-processes     *
           *              working on a common directory               *
           ************************************************************
-------------------------------------------------------------------------------
                                 ORCA GUESS
                   Start orbitals & Density for SCF / CASSCF
-------------------------------------------------------------------------------

------------
SCF SETTINGS
------------
Hamiltonian:
 Density Functional     Method          .... DFT(GTOs)
 Exchange Functional    Exchange        .... B88
   X-Alpha parameter    XAlpha          ....  0.666667
   Becke's b parameter  XBeta           ....  0.004200
 Correlation Functional Correlation     .... LYP
 LDA part of GGA corr.  LDAOpt          .... VWN-5
 Gradients option       PostSCFGGA      .... off
 Hybrid DFT is turned on
   Fraction HF Exchange ScalHFX         ....  0.200000
   Scaling of DF-GGA-X  ScalDFX         ....  0.720000
   Scaling of DF-GGA-C  ScalDFC         ....  0.810000
   Scaling of DF-LDA-C  ScalLDAC        ....  1.000000
   Perturbative correction              ....  0.000000
   NL short-range parameter             ....  4.800000
 RI-approximation to the Coulomb term is turned on
   Number of AuxJ basis functions       .... 1762
   RIJ-COSX (HFX calculated with COS-X)).... on


General Settings:
 Integral files         IntName         .... td
 Hartree-Fock type      HFTyp           .... RHF
 Total Charge           Charge          ....    0
 Multiplicity           Mult            ....    1
 Number of Electrons    NEL             ....  214
 Basis Dimension        Dim             ....  584
 Nuclear Repulsion      ENuc            ....   2552.5290930266 Eh

Convergence Acceleration:
 AO-DIIS                CNVDIIS         .... on
   Start iteration      DIISMaxIt       ....    12
   Startup error        DIISStart       ....  0.200000
   # of expansion vecs  DIISMaxEq       ....     5
   Bias factor          DIISBfac        ....   1.050
   Max. coefficient     DIISMaxC        ....  10.000
 MO-DIIS                CNVKDIIS        .... off
 Trust-Rad. Augm. Hess. CNVTRAH         .... auto
   Auto Start mean grad. ratio tolernc. ....  1.125000
   Auto Start start iteration           ....    50
   Auto Start num. interpolation iter.  ....    10
   Max. Number of Micro iterations      ....    24
   Max. Number of Macro iterations      .... Maxiter - #DIIS iter
   Number of Davidson start vectors     ....     2
   Converg. threshold    (grad. norm)   ....   1.000e-05
   Grad. Scal. Fac. for Micro threshold ....   0.100
   Minimum threshold for Micro iter.    ....   1.000e-02
   NR start threshold (gradient norm)   ....   1.000e-04
   Initial trust radius                 ....   0.400
   Minimum AH scaling param. (alpha)    ....   1.000
   Maximum AH scaling param. (alpha)    .... 1000.000
   Quad. conv. algorithm                .... NR
   White noise on init. David. guess    .... on
   Maximum white noise                  ....   0.010
   Pseudo random numbers                .... off
   Inactive MOs                         .... canonical
   Orbital update algorithm             .... Taylor
   Preconditioner                       .... Diag
   Full preconditioner red. dimension   ....   250
 SOSCF                 CNVSOSCF           .... on
   Start iteration     SOSCFMaxIt         ....   150
   Startup grad/error  SOSCFStart         ....  0.003300
   Hessian update      SOSCFHessUp        .... L-BFGS
   Autom. constraints  SOSCFAutoConstrain .... off
 Level Shifting         CNVShift        .... on
   Level shift para.    LevelShift      ....    0.2500
   Turn off err/grad.   ShiftErr        ....    0.0010
 Zerner damping         CNVZerner       .... off
 Static damping         CNVDamp         .... on
   Fraction old density DampFac         ....    0.7000
   Max. Damping (<1)    DampMax         ....    0.9800
   Min. Damping (>=0)   DampMin         ....    0.0000
   Turn off err/grad.   DampErr         ....    0.1000

SCF Procedure:
 Maximum # iterations   MaxIter         ....   300
 SCF integral mode      SCFMode         .... Direct
   Integral package                     .... SHARK and LIBINT hybrid scheme
 Reset frequency        DirectResetFreq ....    20
 Integral Threshold     Thresh          ....  1.000e-12 Eh
 Primitive CutOff       TCut            ....  1.000e-13 Eh

Convergence Tolerance:
 Convergence Check Mode ConvCheckMode   .... Total+1el-Energy
 Convergence forced     ConvForced      .... 1
 Energy Change          TolE            ....  1.000e-08 Eh
 1-El. energy change                    ....  1.000e-05 Eh
 Orbital Gradient       TolG            ....  1.000e-05
 Orbital Rotation angle TolX            ....  1.000e-05
 DIIS Error             TolErr          ....  5.000e-07

------------------------------
INITIAL GUESS: MODEL POTENTIAL
------------------------------
Loading Hartree-Fock densities                     ... done
Calculating cut-offs                               ... done
Initializing the effective Hamiltonian             ... done
Setting up the integral package (SHARK)            ... done
Starting the Coulomb interaction                   ... done (   2.1 sec)
Making the grid                                    ... done (   1.4 sec)
Mapping shells                                     ... done
Starting the XC term evaluation                    ... done (   1.9 sec)
  promolecular density results
     # of electrons  =    213.996930739
     EX              =   -171.986338349
     EC              =     -7.206837047
     EX+EC           =   -179.193175396
Transforming the Hamiltonian                       ... done (   0.0 sec)
Diagonalizing the Hamiltonian                      ... done (   0.1 sec)
Back transforming the eigenvectors                 ... done (   0.0 sec)
Now organizing SCF variables                       ... done
                      ------------------
                      INITIAL GUESS DONE (   5.7 sec)
                      ------------------
             **** ENERGY FILE WAS UPDATED (td.en.tmp) ****
Finished Guess after   6.2 sec
Maximum memory used throughout the entire GUESS-calculation: 42.5 MB


           ************************************************************
           *        Program running with 4 parallel MPI-processes     *
           *              working on a common directory               *
           ************************************************************

-------------------------------------------------------------------------------------------
                                      ORCA LEAN-SCF
                              memory conserving SCF solver
-------------------------------------------------------------------------------------------

--------------------
CPCM SOLVATION MODEL
--------------------
CPCM parameters:
  Epsilon                                         ...      25.4510
  Refrac                                          ...       1.3611
  Rsolv                                           ...       1.3000
  Surface type                                    ... GAUSSIAN VDW
  Discretization scheme                           ... Constant charge density
    Threshold for H atoms                         ...       5.0000 (charges/Ang^2)
    Threshold for non-H atoms                     ...       5.0000 (charges/Ang^2)
  Epsilon function type                           ...         CPCM
Solvent:                                          ... ETHANOL
Radii:
  Scheme                                          ... Element-dependent radii
  Radius for C  used is    3.8550 Bohr (=   2.0400 Ang.)
  Radius for O  used is    3.4469 Bohr (=   1.8240 Ang.)
  Radius for N  used is    3.5149 Bohr (=   1.8600 Ang.)
  Radius for H  used is    2.4944 Bohr (=   1.3200 Ang.)
Calculating surface                               ...        done! (  0.0s)
Cavity surface points                             ...         4995
Cavity Volume                                     ...    3390.4843
Cavity Surface-area                               ...    1741.5921
Calculating surface distance matrix               ...        done! (  0.3s)
Performing Cholesky decomposition & store         ...        done! (  1.7s)
Overall time for CPCM initialization              ...                 2.1s

----------------------------------------D-I-I-S--------------------------------------------
Iteration    Energy (Eh)           Delta-E    RMSDP     MaxDP     DIISErr   Damp  Time(sec)
-------------------------------------------------------------------------------------------
               ***  Starting incremental Fock matrix formation  ***
    1    -1287.4256208555793819     0.00e+00  9.01e-02  5.81e+00  2.58e-01  0.700  65.1
    2    -1287.7697906474122647    -3.44e-01  5.59e-02  2.48e+00  9.97e-02  0.700  33.1
                               ***Turning on AO-DIIS***
    3    -1287.9072397222907966    -1.37e-01  2.73e-02  1.54e+00  3.43e-02  0.700  32.7
    4    -1287.9892767105611711    -8.20e-02  8.24e-02  6.70e+00  1.78e-02  0.000  33.8
    5    -1288.1680845707492153    -1.79e-01  2.28e-02  1.54e+00  5.12e-03  0.000  39.9
                              *** Initializing SOSCF ***
---------------------------------------S-O-S-C-F--------------------------------------
Iteration    Energy (Eh)           Delta-E    RMSDP     MaxDP     MaxGrad    Time(sec)
--------------------------------------------------------------------------------------
    6    -1288.1689657919519050    -8.81e-04  8.05e-03  4.85e-01  1.59e-03    26.7
               *** Restarting incremental Fock matrix formation ***
    7    -1288.1688186687870257     1.47e-04  2.30e-02  1.41e+00  1.88e-04    67.5
    8    -1288.1688144107079097     4.26e-06  3.89e-03  1.62e-01  4.02e-04    54.6
    9    -1288.1688288860877947    -1.45e-05  4.93e-03  2.01e-01  6.52e-05    42.6
   10    -1288.1688290178840361    -1.32e-07  7.80e-04  5.78e-02  6.38e-05    54.7
   11    -1288.1688297626333224    -7.45e-07  1.34e-03  6.69e-02  1.30e-05    43.7
   12    -1288.1688297198552391     4.28e-08  9.50e-04  9.52e-02  1.65e-05    46.0
   13    -1288.1688297721307208    -5.23e-08  9.17e-04  4.30e-02  3.38e-06    48.3
   14    -1288.1688297771997895    -5.07e-09  7.72e-04  4.81e-02  4.94e-06    54.8
                 **** Energy Check signals convergence ****

               *****************************************************
               *                     SUCCESS                       *
               *           SCF CONVERGED AFTER  14 CYCLES          *
               *****************************************************

Recomputing exchange energy using gridx3       ... done (  121.042 sec)
Old exchange energy                            :    -34.984141214 Eh
New exchange energy                            :    -34.984108340 Eh
Exchange energy change after final integration :      0.000032874 Eh
Total energy after final integration           :  -1288.168796909 Eh
             **** ENERGY FILE WAS UPDATED (td.en.tmp) ****

----------------
TOTAL SCF ENERGY
----------------

Total Energy       :      -1288.16879690925020 Eh          -35052.85502 eV

Components:
Nuclear Repulsion  :       2552.52909302663511 Eh           69457.84779 eV
Electronic Energy  :      -3840.67210949496985 Eh         -104510.00129 eV
One Electron Energy:      -6822.76786311903379 Eh         -185656.95217 eV
Two Electron Energy:       2982.09575362406395 Eh           81146.95089 eV
CPCM Dielectric    :         -0.02581331525750 Eh              -0.70242 eV

Virial components:
Potential Energy   :      -2568.26770718542775 Eh          -69886.11725 eV
Kinetic Energy     :       1280.09891027617732 Eh           34833.26224 eV
Virial Ratio       :          2.00630411179034

DFT components:
N(Alpha)           :      107.000018867810 electrons
N(Beta)            :      107.000018867810 electrons
N(Total)           :      214.000037735620 electrons
E(X)               :     -138.921708317500 Eh       
E(C)               :       -8.487281048933 Eh       
E(XC)              :     -147.408989366433 Eh       

CPCM Solvation Model Properties:
Surface-charge          :         -0.05234025139648
Corrected charge        :          0.00000000000000
Outlying charge corr.   :          0.00011471416411 Eh               0.00312 eV
Free-energy (cav+disp)  :  This term is not implemented in the current solvation scheme

---------------
SCF CONVERGENCE
---------------

  Last Energy change         ...    5.0691e-09  Tolerance :   1.0000e-08
  Last MAX-Density change    ...    4.8090e-02  Tolerance :   1.0000e-07
  Last RMS-Density change    ...    7.7195e-04  Tolerance :   5.0000e-09
  Last DIIS Error            ...    1.5867e-03  Tolerance :   5.0000e-07
  Last Orbital Gradient      ...    4.9368e-06  Tolerance :   1.0000e-05
  Last Orbital Rotation      ...    1.1146e-05  Tolerance :   1.0000e-05


----------------
ORBITAL ENERGIES
----------------

  NO   OCC          E(Eh)            E(eV) 
   0   2.0000     -19.199660      -522.4493 
   1   2.0000     -19.172759      -521.7173 
   2   2.0000     -19.151327      -521.1341 
   3   2.0000     -19.149929      -521.0961 
   4   2.0000     -14.365592      -390.9076 
   5   2.0000     -10.328346      -281.0486 
   6   2.0000     -10.285712      -279.8884 
   7   2.0000     -10.263884      -279.2945 
   8   2.0000     -10.248152      -278.8664 
   9   2.0000     -10.235262      -278.5156 
  10   2.0000     -10.215461      -277.9768 
  11   2.0000     -10.215081      -277.9665 
  12   2.0000     -10.214808      -277.9591 
  13   2.0000     -10.214401      -277.9480 
  14   2.0000     -10.205112      -277.6952 
  15   2.0000     -10.204895      -277.6893 
  16   2.0000     -10.204340      -277.6742 
  17   2.0000     -10.203110      -277.6407 
  18   2.0000     -10.201633      -277.6006 
  19   2.0000     -10.194893      -277.4171 
  20   2.0000     -10.184814      -277.1429 
  21   2.0000     -10.179767      -277.0055 
  22   2.0000     -10.178016      -276.9579 
  23   2.0000     -10.169804      -276.7344 
  24   2.0000     -10.169604      -276.7290 
  25   2.0000     -10.169441      -276.7246 
  26   2.0000     -10.169293      -276.7205 
  27   2.0000     -10.167468      -276.6709 
  28   2.0000     -10.161284      -276.5026 
  29   2.0000      -1.117632       -30.4123 
  30   2.0000      -1.076760       -29.3001 
  31   2.0000      -1.041306       -28.3354 
  32   2.0000      -1.029710       -28.0198 
  33   2.0000      -0.960634       -26.1402 
  34   2.0000      -0.876231       -23.8434 
  35   2.0000      -0.851535       -23.1714 
  36   2.0000      -0.808513       -22.0008 
  37   2.0000      -0.792622       -21.5683 
  38   2.0000      -0.774720       -21.0812 
  39   2.0000      -0.771622       -20.9969 
  40   2.0000      -0.765150       -20.8208 
  41   2.0000      -0.760464       -20.6933 
  42   2.0000      -0.744640       -20.2627 
  43   2.0000      -0.726199       -19.7609 
  44   2.0000      -0.713576       -19.4174 
  45   2.0000      -0.676132       -18.3985 
  46   2.0000      -0.659401       -17.9432 
  47   2.0000      -0.644735       -17.5441 
  48   2.0000      -0.638769       -17.3818 
  49   2.0000      -0.622161       -16.9299 
  50   2.0000      -0.605852       -16.4861 
  51   2.0000      -0.601322       -16.3628 
  52   2.0000      -0.597035       -16.2461 
  53   2.0000      -0.583307       -15.8726 
  54   2.0000      -0.572254       -15.5718 
  55   2.0000      -0.548594       -14.9280 
  56   2.0000      -0.543807       -14.7978 
  57   2.0000      -0.529615       -14.4116 
  58   2.0000      -0.520166       -14.1544 
  59   2.0000      -0.498906       -13.5759 
  60   2.0000      -0.496064       -13.4986 
  61   2.0000      -0.495616       -13.4864 
  62   2.0000      -0.482249       -13.1227 
  63   2.0000      -0.470330       -12.7983 
  64   2.0000      -0.459603       -12.5064 
  65   2.0000      -0.457133       -12.4392 
  66   2.0000      -0.456496       -12.4219 
  67   2.0000      -0.451811       -12.2944 
  68   2.0000      -0.445932       -12.1344 
  69   2.0000      -0.441790       -12.0217 
  70   2.0000      -0.439529       -11.9602 
  71   2.0000      -0.435181       -11.8419 
  72   2.0000      -0.432145       -11.7593 
  73   2.0000      -0.430095       -11.7035 
  74   2.0000      -0.425718       -11.5844 
  75   2.0000      -0.418868       -11.3980 
  76   2.0000      -0.410729       -11.1765 
  77   2.0000      -0.407492       -11.0884 
  78   2.0000      -0.403517       -10.9802 
  79   2.0000      -0.398951       -10.8560 
  80   2.0000      -0.395657       -10.7664 
  81   2.0000      -0.391655       -10.6575 
  82   2.0000      -0.382855       -10.4180 
  83   2.0000      -0.381863       -10.3910 
  84   2.0000      -0.377915       -10.2836 
  85   2.0000      -0.370745       -10.0885 
  86   2.0000      -0.367916       -10.0115 
  87   2.0000      -0.363983        -9.9045 
  88   2.0000      -0.360988        -9.8230 
  89   2.0000      -0.359089        -9.7713 
  90   2.0000      -0.354652        -9.6506 
  91   2.0000      -0.350524        -9.5383 
  92   2.0000      -0.348101        -9.4723 
  93   2.0000      -0.345175        -9.3927 
  94   2.0000      -0.335116        -9.1190 
  95   2.0000      -0.331656        -9.0248 
  96   2.0000      -0.320741        -8.7278 
  97   2.0000      -0.313661        -8.5352 
  98   2.0000      -0.308880        -8.4051 
  99   2.0000      -0.304566        -8.2877 
 100   2.0000      -0.294729        -8.0200 
 101   2.0000      -0.292335        -7.9548 
 102   2.0000      -0.279116        -7.5951 
 103   2.0000      -0.269973        -7.3463 
 104   2.0000      -0.264399        -7.1947 
 105   2.0000      -0.234854        -6.3907 
 106   2.0000      -0.207748        -5.6531 
 107   0.0000      -0.080376        -2.1871 
 108   0.0000      -0.044593        -1.2134 
 109   0.0000      -0.024469        -0.6658 
 110   0.0000      -0.004296        -0.1169 
 111   0.0000       0.002601         0.0708 
 112   0.0000       0.008964         0.2439 
 113   0.0000       0.016744         0.4556 
 114   0.0000       0.019530         0.5314 
 115   0.0000       0.021045         0.5727 
 116   0.0000       0.022181         0.6036 
 117   0.0000       0.022974         0.6252 
*Only the first 10 virtual orbitals were printed.

                    ********************************
                    * MULLIKEN POPULATION ANALYSIS *
                    ********************************

-----------------------
MULLIKEN ATOMIC CHARGES
-----------------------
   0 C :   -0.680367
   1 C :   -0.397145
   2 C :   -0.300096
   3 C :   -0.303575
   4 C :   -0.684225
   5 C :   -0.015094
   6 O :   -0.306529
   7 C :    0.427612
   8 O :   -0.549183
   9 C :    0.435297
  10 C :   -0.583101
  11 C :   -0.412970
  12 C :    0.513565
  13 C :   -0.416686
  14 C :    0.014834
  15 C :    0.047158
  16 O :   -0.567903
  17 C :    0.646758
  18 C :   -1.415231
  19 C :   -0.214349
  20 C :    0.399532
  21 C :    0.084048
  22 C :   -0.020671
  23 O :   -0.733937
  24 N :   -0.072121
  25 C :   -0.294318
  26 C :   -0.647842
  27 C :   -0.262125
  28 C :   -0.660557
  29 H :    0.205336
  30 H :    0.204787
  31 H :    0.200040
  32 H :    0.194732
  33 H :    0.194550
  34 H :    0.196114
  35 H :    0.194249
  36 H :    0.207191
  37 H :    0.197659
  38 H :    0.218057
  39 H :    0.217432
  40 H :    0.222803
  41 H :    0.224646
  42 H :    0.228975
  43 H :    0.233983
  44 H :    0.225501
  45 H :    0.233912
  46 H :    0.222820
  47 H :    0.203832
  48 H :    0.206380
  49 H :    0.570953
  50 H :    0.212822
  51 H :    0.214880
  52 H :    0.216800
  53 H :    0.221258
  54 H :    0.215848
  55 H :    0.214493
  56 H :    0.213899
  57 H :    0.215800
  58 H :    0.223079
  59 H :    0.216391
Sum of atomic charges:   -0.0000000

--------------------------------
MULLIKEN REDUCED ORBITAL CHARGES
--------------------------------
  0 C s       :     3.502013  s :     3.502013
      pz      :     1.104424  p :     3.143993
      px      :     1.027272
      py      :     1.012296
      dz2     :     0.006409  d :     0.034361
      dxz     :     0.012065
      dyz     :     0.001771
      dx2y2   :     0.006156
      dxy     :     0.007959

  1 C s       :     3.445265  s :     3.445265
      pz      :     1.086465  p :     2.911510
      px      :     0.958195
      py      :     0.866850
      dz2     :     0.006615  d :     0.040369
      dxz     :     0.013152
      dyz     :     0.003864
      dx2y2   :     0.007864
      dxy     :     0.008873

  2 C s       :     3.331625  s :     3.331625
      pz      :     0.975855  p :     2.928478
      px      :     0.993710
      py      :     0.958913
      dz2     :     0.009264  d :     0.039993
      dxz     :     0.009847
      dyz     :     0.004554
      dx2y2   :     0.004774
      dxy     :     0.011554

  3 C s       :     3.308689  s :     3.308689
      pz      :     0.994506  p :     2.955189
      px      :     1.024466
      py      :     0.936217
      dz2     :     0.008965  d :     0.039696
      dxz     :     0.009731
      dyz     :     0.004525
      dx2y2   :     0.005118
      dxy     :     0.011357

  4 C s       :     3.692114  s :     3.692114
      pz      :     1.005225  p :     2.952710
      px      :     0.997716
      py      :     0.949770
      dz2     :     0.007349  d :     0.039401
      dxz     :     0.009826
      dyz     :     0.006562
      dx2y2   :     0.004860
      dxy     :     0.010804

  5 C s       :     3.225980  s :     3.225980
      pz      :     0.981121  p :     2.727704
      px      :     0.748012
      py      :     0.998571
      dz2     :     0.012842  d :     0.061409
      dxz     :     0.012847
      dyz     :     0.006966
      dx2y2   :     0.014212
      dxy     :     0.014542

  6 O s       :     3.784292  s :     3.784292
      pz      :     1.594262  p :     4.494063
      px      :     1.257562
      py      :     1.642238
      dz2     :     0.004958  d :     0.028174
      dxz     :     0.009259
      dyz     :     0.004480
      dx2y2   :     0.004328
      dxy     :     0.005149

  7 C s       :     3.186519  s :     3.186519
      pz      :     0.734186  p :     2.256774
      px      :     0.784113
      py      :     0.738475
      dz2     :     0.031242  d :     0.129095
      dxz     :     0.045983
      dyz     :     0.025136
      dx2y2   :     0.012568
      dxy     :     0.014167

  8 O s       :     3.958524  s :     3.958524
      pz      :     1.329051  p :     4.565173
      px      :     1.752184
      py      :     1.483938
      dz2     :     0.008751  d :     0.025487
      dxz     :     0.006145
      dyz     :     0.007960
      dx2y2   :     0.001477
      dxy     :     0.001154

  9 C s       :     2.790884  s :     2.790884
      pz      :     0.817451  p :     2.735654
      px      :     0.942988
      py      :     0.975215
      dz2     :     0.009561  d :     0.038165
      dxz     :     0.010851
      dyz     :     0.006955
      dx2y2   :     0.004513
      dxy     :     0.006285

 10 C s       :     3.505582  s :     3.505582
      pz      :     1.025604  p :     3.041522
      px      :     1.073065
      py      :     0.942853
      dz2     :     0.009660  d :     0.035996
      dxz     :     0.008886
      dyz     :     0.005349
      dx2y2   :     0.006203
      dxy     :     0.005898

 11 C s       :     3.239986  s :     3.239986
      pz      :     1.091645  p :     3.136861
      px      :     1.142285
      py      :     0.902932
      dz2     :     0.008204  d :     0.036123
      dxz     :     0.011943
      dyz     :     0.005847
      dx2y2   :     0.005694
      dxy     :     0.004434

 12 C s       :     2.103178  s :     2.103178
      pz      :     1.106399  p :     3.344419
      px      :     0.949321
      py      :     1.288699
      dz2     :     0.009568  d :     0.038838
      dxz     :     0.010664
      dyz     :     0.007119
      dx2y2   :     0.004972
      dxy     :     0.006515

 13 C s       :     3.612780  s :     3.612780
      pz      :     1.046849  p :     2.767983
      px      :     0.774787
      py      :     0.946347
      dz2     :     0.009557  d :     0.035922
      dxz     :     0.008693
      dyz     :     0.005486
      dx2y2   :     0.006313
      dxy     :     0.005873

 14 C s       :     3.153804  s :     3.153804
      pz      :     0.839578  p :     2.795164
      px      :     1.047418
      py      :     0.908168
      dz2     :     0.008261  d :     0.036198
      dxz     :     0.011687
      dyz     :     0.005890
      dx2y2   :     0.005947
      dxy     :     0.004413

 15 C s       :     2.660808  s :     2.660808
      pz      :     0.844359  p :     3.204190
      px      :     1.249056
      py      :     1.110775
      dz2     :     0.011466  d :     0.087844
      dxz     :     0.014991
      dyz     :     0.014382
      dx2y2   :     0.021018
      dxy     :     0.025987

 16 O s       :     3.938408  s :     3.938408
      pz      :     1.449483  p :     4.605425
      px      :     1.800208
      py      :     1.355733
      dz2     :     0.005099  d :     0.024071
      dxz     :     0.002521
      dyz     :     0.005859
      dx2y2   :     0.005587
      dxy     :     0.005005

 17 C s       :     2.654106  s :     2.654106
      pz      :     1.246145  p :     2.663427
      px      :     0.433023
      py      :     0.984259
      dz2     :     0.004352  d :     0.035709
      dxz     :     0.005157
      dyz     :     0.005132
      dx2y2   :     0.009721
      dxy     :     0.011347

 18 C s       :     3.810666  s :     3.810666
      pz      :     0.954634  p :     3.566053
      px      :     1.571331
      py      :     1.040088
      dz2     :     0.004380  d :     0.038512
      dxz     :     0.007109
      dyz     :     0.005062
      dx2y2   :     0.008915
      dxy     :     0.013046

 19 C s       :     2.902841  s :     2.902841
      pz      :     1.078670  p :     3.277626
      px      :     1.247881
      py      :     0.951075
      dz2     :     0.002923  d :     0.033882
      dxz     :     0.006084
      dyz     :     0.004299
      dx2y2   :     0.010036
      dxy     :     0.010540

 20 C s       :     3.336938  s :     3.336938
      pz      :     0.870575  p :     2.202433
      px      :     0.736699
      py      :     0.595158
      dz2     :     0.006602  d :     0.061097
      dxz     :     0.015654
      dyz     :     0.006581
      dx2y2   :     0.016238
      dxy     :     0.016022

 21 C s       :     2.413950  s :     2.413950
      pz      :     1.206034  p :     3.470590
      px      :     1.247502
      py      :     1.017054
      dz2     :     0.003515  d :     0.031413
      dxz     :     0.004992
      dyz     :     0.004398
      dx2y2   :     0.008242
      dxy     :     0.010265

 22 C s       :     3.291508  s :     3.291508
      pz      :     0.842847  p :     2.653463
      px      :     1.007103
      py      :     0.803512
      dz2     :     0.009923  d :     0.075701
      dxz     :     0.011748
      dyz     :     0.014142
      dx2y2   :     0.020186
      dxy     :     0.019701

 23 O s       :     3.988432  s :     3.988432
      pz      :     1.712127  p :     4.717498
      px      :     1.542623
      py      :     1.462748
      dz2     :     0.005044  d :     0.028006
      dxz     :     0.001312
      dyz     :     0.005881
      dx2y2   :     0.012472
      dxy     :     0.003297

 24 N s       :     3.246488  s :     3.246488
      pz      :     1.530219  p :     3.787910
      px      :     1.062670
      py      :     1.195021
      dz2     :     0.004146  d :     0.037724
      dxz     :     0.006643
      dyz     :     0.004977
      dx2y2   :     0.010738
      dxy     :     0.011221

 25 C s       :     3.409754  s :     3.409754
      pz      :     0.889248  p :     2.830361
      px      :     1.089530
      py      :     0.851583
      dz2     :     0.013042  d :     0.054204
      dxz     :     0.008044
      dyz     :     0.013270
      dx2y2   :     0.010361
      dxy     :     0.009487

 26 C s       :     3.504589  s :     3.504589
      pz      :     0.882507  p :     3.109889
      px      :     1.111676
      py      :     1.115706
      dz2     :     0.007986  d :     0.033364
      dxz     :     0.006922
      dyz     :     0.005535
      dx2y2   :     0.006727
      dxy     :     0.006194

 27 C s       :     3.389377  s :     3.389377
      pz      :     1.005017  p :     2.818587
      px      :     0.900377
      py      :     0.913193
      dz2     :     0.011435  d :     0.054161
      dxz     :     0.007376
      dyz     :     0.012035
      dx2y2   :     0.006052
      dxy     :     0.017263

 28 C s       :     3.518219  s :     3.518219
      pz      :     1.020159  p :     3.108976
      px      :     1.098448
      py      :     0.990370
      dz2     :     0.007426  d :     0.033361
      dxz     :     0.004847
      dyz     :     0.008045
      dx2y2   :     0.002216
      dxy     :     0.010827

 29 H s       :     0.794664  s :     0.794664

 30 H s       :     0.795213  s :     0.795213

 31 H s       :     0.799960  s :     0.799960

 32 H s       :     0.805268  s :     0.805268

 33 H s       :     0.805450  s :     0.805450

 34 H s       :     0.803886  s :     0.803886

 35 H s       :     0.805751  s :     0.805751

 36 H s       :     0.792809  s :     0.792809

 37 H s       :     0.802341  s :     0.802341

 38 H s       :     0.781943  s :     0.781943

 39 H s       :     0.782568  s :     0.782568

 40 H s       :     0.777197  s :     0.777197

 41 H s       :     0.775354  s :     0.775354

 42 H s       :     0.771025  s :     0.771025

 43 H s       :     0.766017  s :     0.766017

 44 H s       :     0.774499  s :     0.774499

 45 H s       :     0.766088  s :     0.766088

 46 H s       :     0.777180  s :     0.777180

 47 H s       :     0.796168  s :     0.796168

 48 H s       :     0.793620  s :     0.793620

 49 H s       :     0.429047  s :     0.429047

 50 H s       :     0.787178  s :     0.787178

 51 H s       :     0.785120  s :     0.785120

 52 H s       :     0.783200  s :     0.783200

 53 H s       :     0.778742  s :     0.778742

 54 H s       :     0.784152  s :     0.784152

 55 H s       :     0.785507  s :     0.785507

 56 H s       :     0.786101  s :     0.786101

 57 H s       :     0.784200  s :     0.784200

 58 H s       :     0.776921  s :     0.776921

 59 H s       :     0.783609  s :     0.783609



                     *******************************
                     * LOEWDIN POPULATION ANALYSIS *
                     *******************************

----------------------
LOEWDIN ATOMIC CHARGES
----------------------
   0 C :   -0.525284
   1 C :   -0.399036
   2 C :   -0.398785
   3 C :   -0.391847
   4 C :   -0.366877
   5 C :   -0.145949
   6 O :   -0.362722
   7 C :    0.210382
   8 O :   -0.374823
   9 C :   -0.084343
  10 C :   -0.142359
  11 C :   -0.169868
  12 C :   -0.087649
  13 C :   -0.149198
  14 C :   -0.144742
  15 C :    0.144508
  16 O :   -0.432642
  17 C :   -0.164237
  18 C :   -0.139574
  19 C :   -0.242935
  20 C :    0.006224
  21 C :   -0.250274
  22 C :    0.106715
  23 O :   -0.467790
  24 N :   -0.326850
[...]
  0-1A  ->  6-1A    4.531924   36552.4   273.6   0.024209036   0.21804   0.20268   0.06854   0.41505
  0-1A  ->  7-1A    4.586723   36994.4   270.3   0.018494770   0.16458   0.19308  -0.24015  -0.26388
  0-1A  ->  8-1A    4.761460   38403.8   260.4   0.003784036   0.03244   0.07745  -0.15686  -0.04285
  0-1A  ->  9-1A    4.851217   39127.7   255.6   0.316161964   2.66012  -1.06383   1.05534   0.64392
  0-1A  -> 10-1A    4.962383   40024.3   249.8   0.017014906   0.13995  -0.31376   0.20323   0.01430
  0-1A  -> 11-1A    5.085200   41014.9   243.8   0.005961693   0.04785  -0.02790  -0.12806   0.17514
  0-1A  -> 12-1A    5.207579   42002.0   238.1   0.007451451   0.05840  -0.06263  -0.19041  -0.13501
  0-1A  -> 13-1A    5.211829   42036.2   237.9   0.065923657   0.51629   0.65978  -0.25682  -0.12254
  0-1A  -> 14-1A    5.345736   43116.3   231.9   0.030935560   0.23621  -0.30882  -0.33294  -0.17316
  0-1A  -> 15-1A    5.389801   43471.7   230.0   0.003135201   0.02374   0.05495  -0.04534  -0.13663
  0-1A  -> 16-1A    5.422860   43738.3   228.6   0.004744278   0.03571   0.15050  -0.04651  -0.10438
  0-1A  -> 17-1A    5.529136   44595.5   224.2   0.014459604   0.10674   0.07119  -0.05971   0.31323
  0-1A  -> 18-1A    5.565360   44887.7   222.8   0.023551152   0.17273  -0.00433  -0.39142   0.13963
  0-1A  -> 19-1A    5.650079   45571.0   219.4   0.044012036   0.31795   0.53637  -0.16495   0.05522
  0-1A  -> 20-1A    5.666849   45706.2   218.8   0.011357689   0.08181   0.21827  -0.18481   0.00303
  0-1A  -> 21-1A    5.753338   46403.8   215.5   0.102286928   0.72567   0.74015  -0.34756  -0.23885
  0-1A  -> 22-1A    5.780101   46619.7   214.5   0.004567781   0.03226   0.12758  -0.12250  -0.03119

----------------------------------------------------------------------------------------------------
                     ABSORPTION SPECTRUM VIA TRANSITION VELOCITY DIPOLE MOMENTS    
----------------------------------------------------------------------------------------------------
     Transition      Energy     Energy  Wavelength fosc(P2)      P2        PX        PY        PZ   
                      (eV)      (cm-1)    (nm)                 (au**2)    (au)      (au)      (au)  
----------------------------------------------------------------------------------------------------
  0-1A  ->  1-1A    3.183686   25678.2   389.4   0.157884404   0.02771   0.16077  -0.04299  -0.00360
  0-1A  ->  2-1A    3.645173   29400.3   340.1   0.006802921   0.00137   0.03692  -0.00008  -0.00203
  0-1A  ->  3-1A    4.007758   32324.7   309.4   0.057503681   0.01270  -0.11205   0.01213   0.00108
  0-1A  ->  4-1A    4.192379   33813.8   295.7   0.248371773   0.05740  -0.23843   0.02112  -0.01021
  0-1A  ->  5-1A    4.427374   35709.2   280.0   0.003623025   0.00088   0.02972  -0.00070   0.00059
  0-1A  ->  6-1A    4.531924   36552.4   273.6   0.000888555   0.00022   0.00440  -0.00024   0.01423
  0-1A  ->  7-1A    4.586723   36994.4   270.3   0.002375874   0.00060  -0.02299   0.00727   0.00438
  0-1A  ->  8-1A    4.761460   38403.8   260.4   0.002186956   0.00057  -0.02247  -0.00270   0.00787
  0-1A  ->  9-1A    4.851217   39127.7   255.6   0.140730724   0.03763   0.17913  -0.06178  -0.04159
  0-1A  -> 10-1A    4.962383   40024.3   249.8   0.002303903   0.00063  -0.00664   0.02299   0.00758
  0-1A  -> 11-1A    5.085200   41014.9   243.8   0.008206019   0.00230   0.02085   0.02879  -0.03220
  0-1A  -> 12-1A    5.207579   42002.0   238.1   0.000842776   0.00024  -0.00565   0.00941   0.01102
  0-1A  -> 13-1A    5.211829   42036.2   237.9   0.045818981   0.01316  -0.10989   0.02637   0.01983
  0-1A  -> 14-1A    5.345736   43116.3   231.9   0.003882276   0.00114   0.03237   0.00506   0.00840
  0-1A  -> 15-1A    5.389801   43471.7   230.0   0.002170806   0.00064  -0.01763   0.00741   0.01671
  0-1A  -> 16-1A    5.422860   43738.3   228.6   0.006127581   0.00183  -0.04165  -0.00738   0.00655
  0-1A  -> 17-1A    5.529136   44595.5   224.2   0.014866804   0.00453  -0.02277  -0.01002  -0.06255
  0-1A  -> 18-1A    5.565360   44887.7   222.8   0.012879828   0.00395   0.00025   0.05087  -0.03692
  0-1A  -> 19-1A    5.650079   45571.0   219.4   0.030767855   0.00958  -0.09009   0.03580   0.01361
  0-1A  -> 20-1A    5.666849   45706.2   218.8   0.009104204   0.00284  -0.04365   0.02992  -0.00659
  0-1A  -> 21-1A    5.753338   46403.8   215.5   0.062852521   0.01993  -0.13066   0.05103   0.01603
  0-1A  -> 22-1A    5.780101   46619.7   214.5   0.002147400   0.00068  -0.02095   0.00905   0.01277

------------------------------------------------------------------------------------------
                     CD SPECTRUM VIA TRANSITION ELECTRIC DIPOLE MOMENTS    
------------------------------------------------------------------------------------------
     Transition      Energy     Energy  Wavelength    R        MX        MY        MZ   
                      (eV)      (cm-1)    (nm)   (1e40*cgs)   (au)      (au)      (au)  
------------------------------------------------------------------------------------------
  0-1A  ->  1-1A    3.183686   25678.2   389.4    1.72035  -0.01044   0.19010  -0.02371
  0-1A  ->  2-1A    3.645173   29400.3   340.1    1.04098  -0.00334  -0.09797   0.16095
  0-1A  ->  3-1A    4.007758   32324.7   309.4  -32.41642   0.07096   0.07453   0.15117
  0-1A  ->  4-1A    4.192379   33813.8   295.7   56.25033   0.02370  -0.39424   0.02042
  0-1A  ->  5-1A    4.427374   35709.2   280.0   -8.99977   0.01758   0.17106  -0.13578
  0-1A  ->  6-1A    4.531924   36552.4   273.6   35.88011  -0.01029   0.07294  -0.19039
  0-1A  ->  7-1A    4.586723   36994.4   270.3  -19.76158   0.00185   0.14658  -0.29090
  0-1A  ->  8-1A    4.761460   38403.8   260.4  -14.33042   0.04731  -0.11070  -0.21864
  0-1A  ->  9-1A    4.851217   39127.7   255.6   34.46898  -0.04777   0.02888  -0.23980
  0-1A  -> 10-1A    4.962383   40024.3   249.8   -8.94026  -0.01576   0.08133  -0.17549
  0-1A  -> 11-1A    5.085200   41014.9   243.8    0.32982  -0.03988  -0.17571  -0.13882
  0-1A  -> 12-1A    5.207579   42002.0   238.1   -1.46049  -0.01281  -0.03015   0.02553
  0-1A  -> 13-1A    5.211829   42036.2   237.9   -3.20247  -0.02080  -0.09992   0.04199
  0-1A  -> 14-1A    5.345736   43116.3   231.9   10.06125   0.02767   0.05667  -0.03507
  0-1A  -> 15-1A    5.389801   43471.7   230.0   -2.54177   0.04516   0.05034  -0.03800
  0-1A  -> 16-1A    5.422860   43738.3   228.6    6.73318  -0.01546   0.08233   0.07785
  0-1A  -> 17-1A    5.529136   44595.5   224.2  -33.08057  -0.05805  -0.48785   0.14422
  0-1A  -> 18-1A    5.565360   44887.7   222.8  -25.41517   0.10079  -0.27878  -0.39232
  0-1A  -> 19-1A    5.650079   45571.0   219.4    3.58742   0.01936   0.09085  -0.05443
  0-1A  -> 20-1A    5.666849   45706.2   218.8   -2.87104   0.05276   0.02576  -0.21971
  0-1A  -> 21-1A    5.753338   46403.8   215.5  -14.27065   0.03802   0.01490  -0.03059
  0-1A  -> 22-1A    5.780101   46619.7   214.5    0.06875  -0.05341  -0.02325  -0.12249

------------------------------------------------------------------------------------------
                     CD SPECTRUM VIA TRANSITION VELOCITY DIPOLE MOMENTS    
------------------------------------------------------------------------------------------
     Transition      Energy     Energy  Wavelength    R        MX        MY        MZ   
                      (eV)      (cm-1)    (nm)   (1e40*cgs)   (au)      (au)      (au)  
------------------------------------------------------------------------------------------
  0-1A  ->  1-1A    3.183686   25678.2   389.4  -39.35395  -0.01044   0.19010  -0.02371
  0-1A  ->  2-1A    3.645173   29400.3   340.1   -1.55499  -0.00334  -0.09797   0.16095
  0-1A  ->  3-1A    4.007758   32324.7   309.4  -22.03531   0.07096   0.07453   0.15117
  0-1A  ->  4-1A    4.192379   33813.8   295.7  -43.40782   0.02370  -0.39424   0.02042
  0-1A  ->  5-1A    4.427374   35709.2   280.0    0.93842   0.01758   0.17106  -0.13578
  0-1A  ->  6-1A    4.531924   36552.4   273.6   -7.84827  -0.01029   0.07294  -0.19039
  0-1A  ->  7-1A    4.586723   36994.4   270.3   -0.70560   0.00185   0.14658  -0.29090
  0-1A  ->  8-1A    4.761460   38403.8   260.4   -6.69288   0.04731  -0.11070  -0.21864
  0-1A  ->  9-1A    4.851217   39127.7   255.6   -0.97244  -0.04777   0.02888  -0.23980
  0-1A  -> 10-1A    4.962383   40024.3   249.8    1.66425  -0.01576   0.08133  -0.17549
  0-1A  -> 11-1A    5.085200   41014.9   243.8   -3.58027  -0.03988  -0.17571  -0.13882
  0-1A  -> 12-1A    5.207579   42002.0   238.1    0.17293  -0.01281  -0.03015   0.02553
  0-1A  -> 13-1A    5.211829   42036.2   237.9    1.18998  -0.02080  -0.09992   0.04199
  0-1A  -> 14-1A    5.345736   43116.3   231.9    2.13108   0.02767   0.05667  -0.03507
  0-1A  -> 15-1A    5.389801   43471.7   230.0   -2.51876   0.04516   0.05034  -0.03800
  0-1A  -> 16-1A    5.422860   43738.3   228.6    1.29178  -0.01546   0.08233   0.07785
  0-1A  -> 17-1A    5.529136   44595.5   224.2   -6.52534  -0.05805  -0.48785   0.14422
  0-1A  -> 18-1A    5.565360   44887.7   222.8    0.75279   0.10079  -0.27878  -0.39232
  0-1A  -> 19-1A    5.650079   45571.0   219.4    1.74321   0.01936   0.09085  -0.05443
  0-1A  -> 20-1A    5.666849   45706.2   218.8   -0.19367   0.05276   0.02576  -0.21971
  0-1A  -> 21-1A    5.753338   46403.8   215.5  -10.47556   0.03802   0.01490  -0.03059
  0-1A  -> 22-1A    5.780101   46619.7   214.5   -1.45537  -0.05341  -0.02325  -0.12249

Total run time:     1971.574 sec

           *** ORCA-CIS/TD-DFT FINISHED WITHOUT ERROR ***
-----------------------
CIS/TD-DFT TOTAL ENERGY
-----------------------

    E(SCF)  =  -1288.168796909 Eh
    DE(CIS) =      0.116998307 Eh (Root  1)
    ----------------------------- ---------
    E(tot)  =  -1288.051798602 Eh


Maximum memory used throughout the entire CIS-calculation: 1416.6 MB
=> NOW LEAVING ORCA_CIS

-------------------------   --------------------
FINAL SINGLE POINT ENERGY     -1288.051798601910
-------------------------   --------------------



           ************************************************************
           *        Program running with 4 parallel MPI-processes     *
           *              working on a common directory               *
           ************************************************************

------------------------------------------------------------------------------
                              ORCA PROPERTY CALCULATIONS
------------------------------------------------------------------------------

GBWName                                 ... td.gbw
Number of atoms                         ...     60
Number of basis functions               ...    584
Max core memory                         ...   2500 MB

Electric properties:
Dipole moment                           ... YES
Quadrupole moment                       ...  NO
Static polarizability (Dipole/Dipole)   ...  NO
Static polarizability (Dipole/Quad.)    ...  NO
Static polarizability (Quad./Quad.)     ...  NO
Static polarizability (Velocity)        ...  NO
Static hyperpolarizability              ...  NO

Atomic electric properties:
Dipole moment                           ...  NO
Quadrupole moment                       ...  NO
Static polarizability                   ...  NO

Choice of electric origin               ... Center of mass
Position of electric origin             ...    -0.361132     0.116156     0.203045

General magnetic properties:
Magnetizability                         ...  NO

EPR properties:
g-Tensor (aka g-matrix)                 ...  NO
Zero-Field splitting spin-orbit         ...  NO
Zero-field splitting spin-spin          ...  NO
Hyperfine couplings                     ...  NO (   0 nuclei)
Quadrupole couplings                    ...  NO (   0 nuclei)
Contact density                         ...  NO (   0 nuclei)

NMR properties:
Chemical shifts                         ...  NO (   0 nuclei)
Spin-rotation constants                 ...  NO (   0 nuclei)
Spin-spin couplings                     ...  NO (   0 nuclei,    0 pairs)

Choice of magnetic origin               ... GIAO
Position of magnetic origin             ...     0.000000     0.000000     0.000000

Properties with geometric perturbations:
SCF Hessian                             ...  NO
IR spectrum                             ...  NO
VCD spectrum                            ...  NO
X-ray spectroscopy properties:
SCF XES/XAS/RIXS spectra                ...  NO

SCF SOC stabilization energy            ...  NO
Diagonal Born-Oppenheimer correction    ...  NO

-------------
DIPOLE MOMENT
-------------

Method             : SCF
Type of density    : Electron Density
Multiplicity       :   1
Irrep              :   0
Energy             : -1288.1687969092502044 Eh
Basis              : AO
                                X                 Y                 Z
Electronic contribution:    -13.940245660       1.291962535       5.879025283
Nuclear contribution   :     12.006944434      -3.285959152      -6.120121556
                        -----------------------------------------
Total Dipole Moment    :     -1.933301226      -1.993996616      -0.241096273
                        -----------------------------------------
Magnitude (a.u.)       :      2.787795464
Magnitude (Debye)      :      7.086012935



--------------------
Rotational spectrum 
--------------------
 
Rotational constants in cm-1:             0.013524             0.001512             0.001409 
Rotational constants in MHz :           405.447915            45.343447            42.239300 

Dipole components along the rotational axes: 
x,y,z [a.u.] :    -1.705588    -2.049835     0.812987 
x,y,z [Debye]:    -4.335261    -5.210267     2.066449 

 

Dipole moment calculation done in   0.1 sec 

Maximum memory used throughout the entire PROP-calculation: 44.9 MB

--------------------------------
SUGGESTED CITATIONS FOR THIS RUN
--------------------------------

Below you find a list of papers that are relevant to this ORCA run
We neither can nor want to force you to cite these papers, but we appreciate if you do
You receive ORCA, which is the product of decades of hard work by many enthusiastic individuals, for free
The only thing we kindly ask in return is that you cite our papers,
We deeply appreciate it, if you show your appreciation for ORCA by not just citing the generic ORCA reference.

Please note that relegating all ORCA citations to the supporting information does *not* help us.
SI sections are not indexed - citations you put there will not count into any citation statistics
But we need these citations in order to attract the funding resources that allow us to do what we are doing

Therefore, if you are a happy ORCA user, please consider citing a few of the papers listed below in the main body of your paper

In addition to the list printed below, the program has created the file td.bibtex that contains the list in bibtex format
You can import this file easily into all common literature databanks and citation aid programs

It goes without saying that in many instances, there are alternative algorithms to achieve similar
results as the ones you have gotten from ORCA. It is, of course, also the case that in some instances
ORCA just re-implements algorithms worked out by others. We are fully aware of that and we are also
fully appreciative of our colleagues work. Hence this citation list should not be read as indicating
that the listed papers, which are focused on our own work, are the only ones worth citing. It simply
meant to make it easier for users to cite ORCA specific papers. It is not a substitute for doing your
own literature research and citing the relevant literature in a scientifically appropriate manner.

List of essential papers. We consider these as the minimum necessary citations

  1. Neese, F.
     Software update: the ORCA program system, version 6.0
     WIRES Comput. Molec. Sci. 2025 15(1), e70019
     doi.org/10.1002/wcms.70019

List of papers to cite with high priority. The work reported in these papers was absolutely
necessary for this run to complete.
Our perspective: the developers of density functionals and basis sets usually get cited in chemistry papers
Good! But without the algorithms to do something with them, the functionals or basis sets would not do anything.
Hence, in our opinion, the algorithm design and method developments papers are equally worthy of getting cited

  1. Neese, F.; Olbrich, G.
     Efficient use of the resolution of the identity approximation in time-dependent density functional calculations with hybrid density functionals
     Chem. Phys. Lett. 2002 362 , 170-178
     doi.org/10.1016/s0009-2614(02)01053-9
  2. Neese, F.
     An improvement of the resolution of the identity approximation for the formation of the Coulomb matrix
     J. Comp. Chem. 2003 24(14), 1740-1747
     doi.org/10.1002/jcc.10318
  3. Neese, F.; Wennmohs, F.; Hansen, A.; Becker, U.
     Efficient, approximate and parallel Hartree-Fock and hybrid DFT calculations. A 'chain-of-spheres' algorithm for the Hartree-Fock exchange
     Chem. Phys. 2009 356(1-3), 98-109
     doi.org/10.1016/j.chemphys.2008.10.036
  4. Garcia-Rates, M.; Neese, F.
     Effect of the Solute Cavity on the Solvation Energy and its Derivatives within the Framework of the Gaussian Charge Scheme
     J. Comput. Chem. 2020 41 , 922-939
     doi.org/10.1002/jcc.26139
  5. Helmich-Paris, B.; de Souza, B.; Neese, F.; Izsák, R.
     An improved chain of spheres for exchange algorithm
     J. Chem. Phys. 2021 155(10), 104109
     doi.org/10.1063/5.0058766
  6. Neese, F.
     The SHARK Integral Generation and Digestion System
     J. Comp. Chem. 2022 44(3), 381
     doi.org/10.1002/jcc.26942

List of suggested additional citations. These are papers that are important in the 'surrounding' of 
of this run, or papers that preceded the highly important papers. If you like your results we are grateful for a citation.

  1. Izsak, R.; Neese, F.
     An overlap fitted chain of spheres exchange method
     J. Chem. Phys. 2011 135 , 144105
     doi.org/10.1063/1.3646921
  2. Izsak, R.; Hansen, A.; Neese, F.
     The resolution of identity and chain of spheres approximations for the LPNO-CCSD singles Fock term
     Molec. Phys. 2012 110 , 2413-2417
     doi.org/10.1080/00268976.2012.687466
  3. Neese, F.
     The ORCA program system
     WIRES Comput. Molec. Sci. 2012 2(1), 73-78
     doi.org/10.1002/wcms.81
  4. Izsak, R.; Neese, F.; Klopper, W.
     Robust fitting techniques in the chain of spheres approximation to the Fock exchange: The role of the complementary space
     J. Chem. Phys. 2013 139 , 
     doi.org/10.1063/1.4819264
  5. Neese, F.
     Software update: the ORCA program system, version 4.0
     WIRES Comput. Molec. Sci. 2018 8(1), 1-6
     doi.org/10.1002/wcms.1327
  6. Neese, F.; Wennmohs, F.; Becker, U.; Riplinger, C.
     The ORCA quantum chemistry program package
     J. Chem. Phys. 2020 152(22), 224108
     doi.org/10.1063/5.0004608
  7. Neese, F.
     Software update: The ORCA program system—Version 5.0
     WIRES Comput. Molec. Sci. 2022 12(1), e1606
     doi.org/10.1002/wcms.1606

List of optional additional citations

  1. Neese, F.
     Approximate second-order SCF convergence for spin unrestricted wavefunctions
     Chem. Phys. Lett. 2000 325(1-3), 93-98
     doi.org/10.1016/s0009-2614(00)00662-x

Timings for individual modules:

Sum of individual times          ...     2811.445 sec (=  46.857 min)
Startup calculation              ...       11.748 sec (=   0.196 min)   0.4 %
SCF iterations                   ...      824.979 sec (=  13.750 min)  29.3 %
Property integrals               ...        1.653 sec (=   0.028 min)   0.1 %
Property calculations            ...        0.730 sec (=   0.012 min)   0.0 %
CIS module                       ...     1972.335 sec (=  32.872 min)  70.2 %
                             ****ORCA TERMINATED NORMALLY****
TOTAL RUN TIME: 0 days 0 hours 46 minutes 52 seconds 852 msec
