
                                 *****************
                                 * O   R   C   A *
                                 *****************

                                            #,                                       
                                            ###                                      
                                            ####                                     
                                            #####                                    
                                            ######                                   
                                           ########,                                 
                                     ,,################,,,,,                         
                               ,,#################################,,                 
                          ,,##########################################,,             
                       ,#########################################, ''#####,          
                    ,#############################################,,   '####,        
                  ,##################################################,,,,####,       
                ,###########''''           ''''###############################       
              ,#####''   ,,,,##########,,,,          '''####'''          '####       
            ,##' ,,,,###########################,,,                        '##       
           ' ,,###''''                  '''############,,,                           
         ,,##''                                '''############,,,,        ,,,,,,###''
      ,#''                                            '''#######################'''  
     '                                                          ''''####''''         
             ,#######,   #######,   ,#######,      ##                                
            ,#'     '#,  ##    ##  ,#'     '#,    #''#        ,####,    ,#,          
            ##       ##  ##   ,#'  ##            #'  '#       #'       ,# #          
            ##       ##  #######   ##           ,######,      #####,      #          
            '#,     ,#'  ##    ##  '#,     ,#' ,#      #,     #,   #      #          
             '#######'   ##     ##  '#######'  #'      '#     '####' #    #          



                #########################################################
                #                        -***-                          #
                #          Department of theory and spectroscopy        #
                #                                                       #
                #                      Frank Neese                      #
                #                                                       #
                #     Directorship, Architecture, Infrastructure        #
                #                    SHARK, DRIVERS                     #
                #        Core code/Algorithms in most modules           #
                #                                                       #
                #        Max Planck Institute fuer Kohlenforschung      #
                #                Kaiser Wilhelm Platz 1                 #
                #                 D-45470 Muelheim/Ruhr                 #
                #                      Germany                          #
                #                                                       #
                #                  All rights reserved                  #
                #                        -***-                          #
                #########################################################


                         Program Version 6.1.1  -  RELEASE   -


 With contributions from (in alphabetic order):
[Max-Planck-Institut fuer Kohlenforschung]                               
  Daniel Aravena         : Magnetic Suceptibility                        
  Michael Atanasov       : Ab Initio Ligand Field Theory (pilot matlab implementation)
  Alexander A. Auer      : GIAO ZORA, VPT2 properties, NMR spectrum      
  Ute Becker             : All parallelization in ORCA, NUMFREQ, NUMCALC 
  Giovanni Bistoni       : ED, misc. LED, open-shell LED, HFLD           
  Dmytro Bykov           : pre 5.0 version of the SCF Hessian            
  Marcos Casanova-Páez   : Triplet and SCS-CIS(D). UHF-(DLPNO)-IP/EA/STEOM-CCSD. UHF-CVS-IP/STEOM-CCSD   
  Vijay G. Chilkuri      : MRCI spin determinant printing, contributions to CSF-ICE 
  Pauline Colinet        : FMM embedding                                 
  Dipayan Datta          : RHF DLPNO-CCSD density                        
  Achintya Kumar Dutta   : EOM-CC, STEOM-CC                              
  Nicolas Foglia         : Exact transition moments, OPA infrastructure, MCD improvements    
  Dmitry Ganyushin       : Spin-Orbit,Spin-Spin,Magnetic field MRCI      
  Miquel Garcia-Rates    : C-PCM and meta-GGA Hessian, CCSD/C-PCM, Gaussian charge scheme 
  Tiago L. C. Gouveia    : GS-ROHF, GS-ROCIS                             
  Yang Guo               : DLPNO-NEVPT2, F12-NEVPT2, CIM, IAO-localization        
  Andreas Hansen         : Spin unrestricted coupled pair/coupled cluster methods 
  Ingolf Harden          : AUTO-CI MPn and infrastructure                
  Benjamin Helmich-Paris : MC-RPA, TRAH-(SCF,CASSCF), AVAS, COSX integrals, SCF dyn. polar., MC-PDFT, srDFT 
  Lee Huntington         : MR-EOM, pCC                                   
  Robert Izsak           : Overlap fitted RIJCOSX, COSX-SCS-MP3, EOM     
  Riya Kayal             : Wick's Theorem for AUTO-CI, AUTO-CI UHF-CCSDT 
  Emily Kempfer          : AUTO-CI RHF CISDT and CCSDT, approximate NEVPT4
  Christian Kollmar      : KDIIS, OOCD, Brueckner-CCSD(T), CCSD density, CASPT2, CASPT2-K, improved NEVPT2 
  Axel Koslowski         : Symmetry handling                             
  Simone Kossmann        : meta-GGA functionals, TD-DFT gradient, OOMP2, (MP2 Hessian; deprecated post 5.0) 
  Lucas Lang             : DCDCAS, Hyperfine gauge corrections, ICE-SOC+SSC
  Marvin Lechner         : AUTO-CI (C++ implementation), FIC-MRCC        
  Spencer Leger          : CASSCF response                               
  Dagmar Lenk            : GEPOL surface, SMD, ORCA-2-JSON               
  Dimitrios Liakos       : Extrapolation schemes; Compound Job, Property file
  Dimitrios Manganas     : Further ROCIS development; embedding schemes. LFT, Crystal Embedding 
  Dimitrios Pantazis     : SARC Basis sets                               
  Anastasios Papadopoulos: AUTO-CI, single reference methods and gradients 
  Taras Petrenko         : pre 6.0 DFT Hessian and TD-DFT gradient,  ECA, NRVS 
  Petra Pikulova         : Analytic Raman intensities                    
  Peter Pinski           : DLPNO-MP2, DLPNO-MP2 Gradient                 
  Shashank Vittal Rao    : ES-AILFT, MagRelax                            
  Christoph Reimann      : Effective Core Potentials                     
  Marius Retegan         : Local ZFS, SOC                                
  Christoph Riplinger    : Optimizer, TS searches, QM/MM, DLPNO-CCSD(T), (RO)-DLPNO pert. Triples 
  Michael Roemelt        : Original ROCIS implementation, recursive CI coupling coefficients
  Masaaki Saitow         : Open-shell DLPNO-CCSD energy and density      
  Barbara Sandhoefer     : DKH picture change effects                    
  Yorick L. A. Schmerwitz: GMF and freeze-and-release deltaSCF, NEB S-IDPP initial path                    
  Kantharuban Sivalingam : CASSCF convergence/infrastructure, NEVPT2, NEVPT3, NEVPT4(SD), FIC-MRCI and CEPA variants
  Bernardo de Souza      : ESD, SOC TD-DFT                               
  Georgi L. Stoychev     : AutoAux, RI-MP2 NMR, DLPNO-MP2 response, X2C  
  Van Anh Tran           : RI-MP2 g-tensors                              
  Willem Van den Heuvel  : Paramagnetic NMR                              
  Zikuan Wang            : NOTCH, Electric field optimization            
  Frank Wennmohs         : Technical directorship and infrastructure     
  Hang Xu                : AUTO-CI-Response properties                   
                                                                         
[FACCTs GmbH]                                                            
  Markus Bursch, Nicolas Foglia, Miquel Garcia-Rates, Ingolf Harden, Hagen Neugebauer, Anastasios Papadopoulos, 
  Christoph Riplinger, Bernardo de Souza, Georgi L. Stoychev                                                    
                                                                 
  APM, various basis sets, CI-OPT, improved COSX, DLPNO-Multilevel,           
  DOCKER, DRACO, updates on ESD, Fragmentator, GOAT, IRC, LR-CPCM, L-BFGS, MBIS, meta-GGA TD-DFT gradient, ML-optimized integration grids, 
  MM, NACMEs, nearIR, NEB, NEB-TS, NL-DFT gradient (VV10), 2- and 3-layer-ONIOM, interface openCOSMO-RS, QMMM,   
  Crystal-QMMM, RESP, rigid body optimization, SF, symmetry and pop. for TD-DFT, various functionals, SOLVATOR                                   
                                                                         
[Other institutions]                                                     
  V. Asgeirsson          : NEB                                           
  Christoph Bannwarth    : sTDA-DFT, sTD-DFT, PBEh-3c, B97-3c, D3        
  Giovanni Bistoni       : ETS/NOCV, ADLD/ADEX, COVALED                  
  Martin Brehm           : Molecular dynamics                            
  Ronald Cardenas        : ETS/NOCV                                      
  Martina Colucci        : COVALED                                       
  Sebastian Ehlert       : rSCAN, r2SCAN, r2SCAN-3c, D4, dhf basis sets  
  Marvin Friede          : D4 for Fr, Ra, Ac-Lr                          
  Lars Goerigk           : TD-DFT with DH, B97 family of functionals     
  Stefan Grimme          : VdW corrections, initial TS optimization, DFT functionals, gCP, sTDA/sTD-DF 
  Waldemar Hujo          : DFT-NL                                        
  H. Jonsson             : NEB                                           
  Holger Kruse           : gCP                                           
  Marcel Mueller         : wB97X-3c, vDZP basis set                      
  Hagen Neugebauer       : wr2SCAN, Native XTB                           
  Gianluca Regni         : ADLD/ADEX                                     
  Tobias Risthaus        : pre 6.0 range-separated hybrid DFT and stability analysis
  Lukas Wittmann         : regularized MP2, r2SCAN double-hybrids, wr2SCAN        
                                                                         
We gratefully acknowledge several colleagues who have allowed us to      
interface, adapt or use parts of their codes:                            
  Ed Valeev, F. Pavosevic, A. Kumar             : LibInt (2-el integral package), F12 methods 
  Garnet Chan, S. Sharma, J. Yang, R. Olivares  : DMRG                   
  Ulf Ekstrom                                   : XCFun DFT Library      
  Mihaly Kallay                                 : mrcc  (arbitrary order and MRCC methods)
  Frank Weinhold                                : gennbo (NPA and NBO analysis)           
  Simon Mueller                                 : openCOSMO-RS                            
  Christopher J. Cramer and Donald G. Truhlar   : smd solvation model                     
  S Lehtola, MJT Oliveira, MAL Marques          : LibXC Library                           
  Liviu Ungur et al                             : ANISO software                          


 Your calculation uses the libint2 library for the computation of 2-el integrals
 For citations please refer to: http://libint.valeyev.net

 Your ORCA version has been built with support for libXC version: 7.0.0
 For citations please refer to: https://libxc.gitlab.io

 This ORCA versions uses:
   CBLAS   interface :  Fast vector & matrix operations
   LAPACKE interface :  Fast linear algebra routines
   Shared memory     :  Shared parallel matrices


  ***********************************
  * Starting time: Tue Jul 21 12:06:49 2026
  * Host name:     DESKTOP-19Q153E
  * Process ID:    22540
  * Working dir.:  C:\Users\ysm04\Documents\etc\uv_vis\calculations\02_tddft_orca\enolB\enolB_c010\b3lyp_def2svp\ethanol
  ***********************************

NOTE: MaxCore=2500 MB was set to SCF,MP2,MDCI,CIPSI,MRCI,RASCI and CIS
      => If you want to overwrite this, your respective input block should be placed after the MaxCore statement
================================================================================

----- Orbital basis set information -----
Your calculation utilizes the basis: def2-SVP
   F. Weigend and R. Ahlrichs, Phys. Chem. Chem. Phys. 7, 3297 (2005).

----- AuxJ basis set information -----
Your calculation utilizes the auxiliary basis: def2/J
   H-Rn: F. Weigend, Phys. Chem. Chem. Phys. 8, 1057 (2006).
   Fr-Lr: K. Eichkorn, F. Weigend, O. Treutler, R. Ahlrichs; Theor. Chem. Acc. 97, 119 (1997).

================================================================================
                                        WARNINGS
                       Please study these warnings very carefully!
================================================================================


WARNING: CIS/ROCIS methods need fully converged wavefunctions
  ===> : Setting SCFConvForced true
         You can overwrite this default with %scf ConvForced false 


================================================================================
                                       INPUT FILE
================================================================================
NAME = td.inp
|  1> # enolB / enolB_c010 / b3lyp_def2svp / solvent=ethanol
|  2> ! B3LYP def2-SVP RIJCOSX def2/J TightSCF CPCM(Ethanol)
|  3> %pal nprocs 4 end
|  4> %maxcore 2500
|  5> %scf
|  6>   MaxIter 300
|  7> end
|  8> %tddft
|  9>   nroots 18
| 10>   tda    true
| 11>   maxdim 5
| 12> end
| 13> * xyz 0 1
| 14> C      8.2893714200     1.3055778500     1.2458897500
| 15> O      7.1190654300     1.7868347500     0.6124264800
| 16> C      6.0568043900     0.9569077400     0.4767657000
| 17> C      6.0161258200    -0.3689744700     0.9034869100
| 18> C      4.8725352700    -1.1181086900     0.7117160500
| 19> C      3.7376348200    -0.5718451700     0.1123681700
| 20> C      3.7902251900     0.7562229700    -0.3227931900
| 21> C      4.9302814100     1.5043306600    -0.1482888600
| 22> C      2.5434964400    -1.4035469600    -0.0462360800
| 23> O      2.7625808500    -2.7133826900    -0.0514842300
| 24> C      1.2788316800    -0.8828959400    -0.1469319200
| 25> C      0.1274333800    -1.7295060300    -0.2523019800
| 26> O      0.2224746700    -2.9763858500    -0.2714635300
| 27> C     -1.2115130700    -1.1007484800    -0.2953972100
| 28> C     -1.4425257600     0.1911447900    -0.7590918900
| 29> C     -2.7201990100     0.7200291800    -0.7659831400
| 30> C     -3.8132848200    -0.0094725800    -0.3084760200
| 31> C     -5.2276566900     0.5463475000    -0.2800965500
| 32> C     -5.7466555700     0.5130586000     1.1656787000
| 33> C     -6.1235925400    -0.3238550400    -1.1745337600
| 34> C     -5.3068686900     1.9912707400    -0.7822757400
| 35> C     -3.5764313900    -1.3106129300     0.1349533500
| 36> C     -2.3077436000    -1.8481358600     0.1362426900
| 37> H      8.9809919300     2.1457288300     1.2497186500
| 38> H      8.7279454100     0.4730141100     0.6891481400
| 39> H      8.0836495700     0.9960262900     2.2741846300
| 40> H      6.8667722200    -0.8255634400     1.3829872500
| 41> H      4.8439242700    -2.1453600700     1.0419795600
| 42> H      2.9427888900     1.1956637400    -0.8240068600
| 43> H      4.9836540500     2.5262677500    -0.4893818500
| 44> H      1.8702481300    -3.1622503800    -0.1352036200
| 45> H      1.1373619000     0.1792345700    -0.0806152700
| 46> H     -0.6291679300     0.7858652000    -1.1458253800
| 47> H     -2.8507800000     1.7223566800    -1.1392727200
| 48> H     -6.7539452800     0.9212379800     1.2083837800
| 49> H     -5.1040282500     1.1094670900     1.8101178200
| 50> H     -5.7735470500    -0.5006505800     1.5552038300
| 51> H     -7.1373356100     0.0702904600    -1.1814552500
| 52> H     -6.1594216700    -1.3504990200    -0.8211532700
| 53> H     -5.7469179100    -0.3274023400    -2.1953736500
| 54> H     -4.9867225900     2.0639910200    -1.8189114500
| 55> H     -6.3369647200     2.3362685800    -0.7244150700
| 56> H     -4.6968113800     2.6518150400    -0.1707874300
| 57> H     -4.3936364700    -1.9214818300     0.4869638200
| 58> H     -2.1384471100    -2.8582737200     0.4819575200
| 59> *
| 60> 
| 61>                          ****END OF INPUT****
================================================================================

                       ****************************
                       * Single Point Calculation *
                       ****************************

---------------------------------
CARTESIAN COORDINATES (ANGSTROEM)
---------------------------------
  C      8.289371    1.305578    1.245890
  O      7.119065    1.786835    0.612426
  C      6.056804    0.956908    0.476766
  C      6.016126   -0.368974    0.903487
  C      4.872535   -1.118109    0.711716
  C      3.737635   -0.571845    0.112368
  C      3.790225    0.756223   -0.322793
  C      4.930281    1.504331   -0.148289
  C      2.543496   -1.403547   -0.046236
  O      2.762581   -2.713383   -0.051484
  C      1.278832   -0.882896   -0.146932
  C      0.127433   -1.729506   -0.252302
  O      0.222475   -2.976386   -0.271464
  C     -1.211513   -1.100748   -0.295397
  C     -1.442526    0.191145   -0.759092
  C     -2.720199    0.720029   -0.765983
  C     -3.813285   -0.009473   -0.308476
  C     -5.227657    0.546347   -0.280097
  C     -5.746656    0.513059    1.165679
  C     -6.123593   -0.323855   -1.174534
  C     -5.306869    1.991271   -0.782276
  C     -3.576431   -1.310613    0.134953
  C     -2.307744   -1.848136    0.136243
  H      8.980992    2.145729    1.249719
  H      8.727945    0.473014    0.689148
  H      8.083650    0.996026    2.274185
  H      6.866772   -0.825563    1.382987
  H      4.843924   -2.145360    1.041980
  H      2.942789    1.195664   -0.824007
  H      4.983654    2.526268   -0.489382
  H      1.870248   -3.162250   -0.135204
  H      1.137362    0.179235   -0.080615
  H     -0.629168    0.785865   -1.145825
  H     -2.850780    1.722357   -1.139273
  H     -6.753945    0.921238    1.208384
  H     -5.104028    1.109467    1.810118
  H     -5.773547   -0.500651    1.555204
  H     -7.137336    0.070290   -1.181455
  H     -6.159422   -1.350499   -0.821153
  H     -5.746918   -0.327402   -2.195374
  H     -4.986723    2.063991   -1.818911
  H     -6.336965    2.336269   -0.724415
  H     -4.696811    2.651815   -0.170787
  H     -4.393636   -1.921482    0.486964
  H     -2.138447   -2.858274    0.481958

----------------------------
CARTESIAN COORDINATES (A.U.)
----------------------------
  NO LB      ZA    FRAG     MASS         X           Y           Z
   0 C     6.0000    0    12.011   15.664642    2.467185    2.354390
   1 O     8.0000    0    15.999   13.453084    3.376628    1.157318
   2 C     6.0000    0    12.011   11.445702    1.808294    0.900957
   3 C     6.0000    0    12.011   11.368830   -0.697261    1.707343
   4 C     6.0000    0    12.011    9.207757   -2.112919    1.344948
   5 C     6.0000    0    12.011    7.063106   -1.080631    0.212345
   6 C     6.0000    0    12.011    7.162488    1.429054   -0.609991
   7 C     6.0000    0    12.011    9.316882    2.842773   -0.280225
   8 C     6.0000    0    12.011    4.806512   -2.652319   -0.087374
   9 O     8.0000    0    15.999    5.220521   -5.127550   -0.097291
  10 C     6.0000    0    12.011    2.416642   -1.668432   -0.277661
  11 C     6.0000    0    12.011    0.240814   -3.268293   -0.476782
  12 O     8.0000    0    15.999    0.420416   -5.624554   -0.512992
  13 C     6.0000    0    12.011   -2.289428   -2.080113   -0.558220
  14 C     6.0000    0    12.011   -2.725979    0.361211   -1.434476
  15 C     6.0000    0    12.011   -5.140431    1.360658   -1.447498
  16 C     6.0000    0    12.011   -7.206064   -0.017901   -0.582935
  17 C     6.0000    0    12.011   -9.878839    1.032447   -0.529306
  18 C     6.0000    0    12.011  -10.859605    0.969540    2.202814
  19 C     6.0000    0    12.011  -11.571913   -0.611997   -2.219547
  20 C     6.0000    0    12.011  -10.028528    3.762956   -1.478287
  21 C     6.0000    0    12.011   -6.758476   -2.476700    0.255025
  22 C     6.0000    0    12.011   -4.361003   -3.492471    0.257461
  23 H     1.0000    0     1.008   16.971615    4.054840    2.361626
  24 H     1.0000    0     1.008   16.493427    0.893867    1.302301
  25 H     1.0000    0     1.008   15.275884    1.882217    4.297586
  26 H     1.0000    0     1.008   12.976319   -1.560089    2.613467
  27 H     1.0000    0     1.008    9.153690   -4.054143    1.969056
  28 H     1.0000    0     1.008    5.561065    2.259477   -1.557147
  29 H     1.0000    0     1.008    9.417741    4.773954   -0.924798
  30 H     1.0000    0     1.008    3.534257   -5.975787   -0.255498
  31 H     1.0000    0     1.008    2.149303    0.338704   -0.152341
  32 H     1.0000    0     1.008   -1.188955    1.485070   -2.165296
  33 H     1.0000    0     1.008   -5.387193    3.254782   -2.152913
  34 H     1.0000    0     1.008  -12.763107    1.740887    2.283514
  35 H     1.0000    0     1.008   -9.645216    2.096589    3.420627
  36 H     1.0000    0     1.008  -10.910423   -0.946092    2.938909
  37 H     1.0000    0     1.008  -13.487610    0.132830   -2.232627
  38 H     1.0000    0     1.008  -11.639620   -2.552073   -1.551755
  39 H     1.0000    0     1.008  -10.860101   -0.618701   -4.148655
  40 H     1.0000    0     1.008   -9.423540    3.900378   -3.437245
  41 H     1.0000    0     1.008  -11.975128    4.414908   -1.368946
  42 H     1.0000    0     1.008   -8.875687    5.011204   -0.322741
  43 H     1.0000    0     1.008   -8.302770   -3.631074    0.920228
  44 H     1.0000    0     1.008   -4.041079   -5.401355    0.910768

--------------------------------
INTERNAL COORDINATES (ANGSTROEM)
--------------------------------
 C      0   0   0     0.000000000000     0.00000000     0.00000000
 O      1   0   0     1.415097179867     0.00000000     0.00000000
 C      2   1   0     1.354836228575   119.00715489     0.00000000
 C      3   2   1     1.393452321364   125.10575544   359.24950623
 C      4   3   2     1.380498999771   119.86667755   179.89567095
 C      5   4   3     1.394855098551   121.41115914   359.08565441
 C      6   5   4     1.398533567969   118.35922767     1.40841937
 C      7   6   5     1.374716356848   120.56123118   359.30566777
 C      6   5   4     1.463847548823   119.19421935   181.04458519
 O      9   6   5     1.328041852265   115.22838756   336.95539214
 C      9   6   5     1.371347546031   122.99308861   155.25547129
 C     11   9   6     1.433028101356   121.47098270   182.31649485
 O     12  11   9     1.250643553266   121.94288730   359.23571720
 C     12  11   9     1.479855010296   118.56122884   177.24434757
 C     14  12  11     1.391893616722   123.65705824    26.28880921
 C     15  14  12     1.382828666566   120.66361011   180.30358944
 C     16  15  14     1.391517937620   121.57768949     0.28904684
 C     17  16  15     1.519930637331   123.05248868   178.98969194
 C     18  17  16     1.536468047770   108.90344164   238.91800077
 C     18  17  16     1.536219850988   108.94660339   119.18545846
 C     18  17  16     1.531751170819   112.76541826   358.96707558
 C     17  16  15     1.394881845849   117.39687244   358.74128494
 C     22  17  16     1.377861121873   121.36861686     0.79403669
 H      1   2   3     1.088212874176   105.34472787   180.94016290
 H      1   2   3     1.093375848541   111.26952309    62.29998511
 H      1   2   3     1.093404777793   111.20282187   299.55263639
 H      4   3   2     1.077957959022   121.07849224   359.81553461
 H      5   4   3     1.079415570145   119.72809638   179.92003234
 H      7   6   5     1.078179769747   120.14111031   177.64127467
 H      8   7   6     1.078679045150   121.09498385   179.38572212
 H     10   9   6     1.002371599044   107.16585521   178.17321580
 H     11   9   6     1.073560811968   119.51230178   358.20814552
 H     15  14  12     1.079261839398   120.38110717     2.06849329
 H     16  15  14     1.077523513777   118.00003205   180.33384409
 H     19  18  17     1.087688691670   109.97638323   179.17324150
 H     19  18  17     1.088106032857   110.23849728    59.52767334
 H     19  18  17     1.086305334708   111.46865141   299.24221846
 H     20  18  17     1.087691865450   109.99854595   181.05762376
 H     20  18  17     1.086351397541   111.41764726    60.96200456
 H     20  18  17     1.088122438533   110.25438801   300.71627828
 H     21  18  17     1.087380043828   111.12520657    61.77538863
 H     21  18  17     1.087873704875   109.31026227   180.82551135
 H     21  18  17     1.087385233950   111.07873642   299.87694178
 H     22  17  16     1.079303630474   120.20277754   180.81734086
 H     23  22  17     1.080998862818   120.60010542   180.04610320

---------------------------
INTERNAL COORDINATES (A.U.)
---------------------------
 C      0   0   0     0.000000000000     0.00000000     0.00000000
 O      1   0   0     2.674146122832     0.00000000     0.00000000
 C      2   1   0     2.560269428322   119.00715489     0.00000000
 C      3   2   1     2.633243268055   125.10575544   359.24950623
 C      4   3   2     2.608765037720   119.86667755   179.89567095
 C      5   4   3     2.635894132765   121.41115914   359.08565441
 C      6   5   4     2.642845432558   118.35922767     1.40841937
 C      7   6   5     2.597837426265   120.56123118   359.30566777
 C      6   5   4     2.766270969088   119.19421935   181.04458519
 O      9   6   5     2.509635395167   115.22838756   336.95539214
 C      9   6   5     2.591471296424   122.99308861   155.25547129
 C     11   9   6     2.708030653777   121.47098270   182.31649485
 O     12  11   9     2.363373806827   121.94288730   359.23571720
 C     12  11   9     2.796520687371   118.56122884   177.24434757
 C     14  12  11     2.630297743159   123.65705824    26.28880921
 C     15  14  12     2.613167469946   120.66361011   180.30358944
 C     16  15  14     2.629587812540   121.57768949     0.28904684
 C     17  16  15     2.872252647111   123.05248868   178.98969194
 C     18  17  16     2.903503823805   108.90344164   238.91800077
 C     18  17  16     2.903034799861   108.94660339   119.18545846
 C     18  17  16     2.894590218161   112.76541826   358.96707558
 C     17  16  15     2.635944677833   117.39687244   358.74128494
 C     22  17  16     2.603780170917   121.36861686     0.79403669
 H      1   2   3     2.056424307600   105.34472787   180.94016290
 H      1   2   3     2.066180915186   111.26952309    62.29998511
 H      1   2   3     2.066235583549   111.20282187   299.55263639
 H      4   3   2     2.037045326432   121.07849224   359.81553461
 H      5   4   3     2.039799812264   119.72809638   179.92003234
 H      7   6   5     2.037464487955   120.14111031   177.64127467
 H      8   7   6     2.038407981733   121.09498385   179.38572212
 H     10   9   6     1.894207806614   107.16585521   178.17321580
 H     11   9   6     2.028735922730   119.51230178   358.20814552
 H     15  14  12     2.039509303254   120.38110717     2.06849329
 H     16  15  14     2.036224343899   118.00003205   180.33384409
 H     19  18  17     2.055433746219   109.97638323   179.17324150
 H     19  18  17     2.056222406768   110.23849728    59.52767334
 H     19  18  17     2.052819580415   111.46865141   299.24221846
 H     20  18  17     2.055439743795   109.99854595   181.05762376
 H     20  18  17     2.052906626555   111.41764726    60.96200456
 H     20  18  17     2.056253409001   110.25438801   300.71627828
 H     21  18  17     2.054850486326   111.12520657    61.77538863
 H     21  18  17     2.055783370509   109.31026227   180.82551135
 H     21  18  17     2.054860294236   111.07873642   299.87694178
 H     22  17  16     2.039588276943   120.20277754   180.81734086
 H     23  22  17     2.042791801806   120.60010542   180.04610320

---------------------
BASIS SET INFORMATION
---------------------
There are 3 groups of distinct atoms

 Group   1 Type C   : 7s4p1d contracted to 3s2p1d pattern {511/31/1}
 Group   2 Type O   : 7s4p1d contracted to 3s2p1d pattern {511/31/1}
 Group   3 Type H   : 4s1p contracted to 2s1p pattern {31/1}

Atom   0C    basis set group =>   1
Atom   1O    basis set group =>   2
Atom   2C    basis set group =>   1
Atom   3C    basis set group =>   1
Atom   4C    basis set group =>   1
Atom   5C    basis set group =>   1
Atom   6C    basis set group =>   1
Atom   7C    basis set group =>   1
Atom   8C    basis set group =>   1
Atom   9O    basis set group =>   2
Atom  10C    basis set group =>   1
Atom  11C    basis set group =>   1
Atom  12O    basis set group =>   2
Atom  13C    basis set group =>   1
Atom  14C    basis set group =>   1
Atom  15C    basis set group =>   1
Atom  16C    basis set group =>   1
Atom  17C    basis set group =>   1
Atom  18C    basis set group =>   1
Atom  19C    basis set group =>   1
Atom  20C    basis set group =>   1
Atom  21C    basis set group =>   1
Atom  22C    basis set group =>   1
Atom  23H    basis set group =>   3
Atom  24H    basis set group =>   3
Atom  25H    basis set group =>   3
Atom  26H    basis set group =>   3
Atom  27H    basis set group =>   3
Atom  28H    basis set group =>   3
Atom  29H    basis set group =>   3
Atom  30H    basis set group =>   3
Atom  31H    basis set group =>   3
Atom  32H    basis set group =>   3
Atom  33H    basis set group =>   3
Atom  34H    basis set group =>   3
Atom  35H    basis set group =>   3
Atom  36H    basis set group =>   3
Atom  37H    basis set group =>   3
Atom  38H    basis set group =>   3
Atom  39H    basis set group =>   3
Atom  40H    basis set group =>   3
Atom  41H    basis set group =>   3
Atom  42H    basis set group =>   3
Atom  43H    basis set group =>   3
Atom  44H    basis set group =>   3
---------------------------------
AUXILIARY/J BASIS SET INFORMATION
---------------------------------
There are 3 groups of distinct atoms

 Group   1 Type C   : 12s5p4d2f1g contracted to 6s4p3d1f1g pattern {711111/2111/211/2/1}
 Group   2 Type O   : 12s5p4d2f1g contracted to 6s4p3d1f1g pattern {711111/2111/211/2/1}
 Group   3 Type H   : 5s2p1d contracted to 3s1p1d pattern {311/2/1}

Atom   0C    basis set group =>   1
Atom   1O    basis set group =>   2
Atom   2C    basis set group =>   1
Atom   3C    basis set group =>   1
Atom   4C    basis set group =>   1
Atom   5C    basis set group =>   1
Atom   6C    basis set group =>   1
Atom   7C    basis set group =>   1
Atom   8C    basis set group =>   1
Atom   9O    basis set group =>   2
Atom  10C    basis set group =>   1
Atom  11C    basis set group =>   1
Atom  12O    basis set group =>   2
Atom  13C    basis set group =>   1
Atom  14C    basis set group =>   1
Atom  15C    basis set group =>   1
Atom  16C    basis set group =>   1
Atom  17C    basis set group =>   1
Atom  18C    basis set group =>   1
Atom  19C    basis set group =>   1
Atom  20C    basis set group =>   1
Atom  21C    basis set group =>   1
Atom  22C    basis set group =>   1
Atom  23H    basis set group =>   3
Atom  24H    basis set group =>   3
Atom  25H    basis set group =>   3
Atom  26H    basis set group =>   3
Atom  27H    basis set group =>   3
Atom  28H    basis set group =>   3
Atom  29H    basis set group =>   3
Atom  30H    basis set group =>   3
Atom  31H    basis set group =>   3
Atom  32H    basis set group =>   3
Atom  33H    basis set group =>   3
Atom  34H    basis set group =>   3
Atom  35H    basis set group =>   3
Atom  36H    basis set group =>   3
Atom  37H    basis set group =>   3
Atom  38H    basis set group =>   3
Atom  39H    basis set group =>   3
Atom  40H    basis set group =>   3
Atom  41H    basis set group =>   3
Atom  42H    basis set group =>   3
Atom  43H    basis set group =>   3
Atom  44H    basis set group =>   3


           ************************************************************
           *        Program running with 4 parallel MPI-processes     *
           *              working on a common directory               *
           ************************************************************
------------------------------------------------------------------------------
                             ORCA STARTUP CALCULATIONS
                           -- RI-GTO INTEGRALS CHOSEN --
------------------------------------------------------------------------------
------------------------------------------------------------------------------
                   ___                                                        
                  /   \      - P O W E R E D   B Y -                         
                 /     \                                                     
                 |  |  |   _    _      __       _____    __    __             
                 |  |  |  | |  | |    /  \     |  _  \  |  |  /  |          
                  \  \/   | |  | |   /    \    | | | |  |  | /  /          
                 / \  \   | |__| |  /  /\  \   | |_| |  |  |/  /          
                |  |  |   |  __  | /  /__\  \  |    /   |      \           
                |  |  |   | |  | | |   __   |  |    \   |  |\   \          
                \     /   | |  | | |  |  |  |  | |\  \  |  | \   \       
                 \___/    |_|  |_| |__|  |__|  |_| \__\ |__|  \__/        
                                                                              
                      - O R C A' S   B I G   F R I E N D -                    
                                      &                                       
                       - I N T E G R A L  F E E D E R -                       
                                                                              
 v1 FN, 2020, v2 2021, v3 2022-2024                                           
------------------------------------------------------------------------------


----------------------
SHARK INTEGRAL PACKAGE
----------------------

Number of atoms                             ...     45
Number of basis functions                   ...    432
Number of shells                            ...    204
Maximum angular momentum                    ...      2
Integral batch strategy                     ... SHARK/LIBINT Hybrid
RI-J (if used) integral strategy            ... SPLIT-RIJ (Revised 2003 algorithm where possible)
Printlevel                                  ...      1
Contraction scheme used                     ... SEGMENTED contraction
Prescreening option                         ... SCHWARTZ
   Thresh                                   ... 2.500e-11
   Tcut                                     ... 2.500e-12
   Tpresel                                  ... 2.500e-12 
Coulomb Range Separation                    ... NOT USED
Exchange Range Separation                   ... NOT USED
Multipole approximations                    ... NOT USED
Finite Nucleus Model                        ... NOT USED
CABS basis                                  ... NOT available
Auxiliary Coulomb fitting basis             ... AVAILABLE
   # of basis functions in Aux-J            ...   1369
   # of shells in Aux-J                     ...    455
   Maximum angular momentum in Aux-J        ...      4
Auxiliary J/K fitting basis                 ... NOT available
Auxiliary Correlation fitting basis         ... NOT available
Auxiliary 'external' fitting basis          ... NOT available

Checking pre-screening integrals            ... done (  0.0 sec) Dimension = 204
   => SHARK Basis and OBASIS are compatible. Storing Pre-screening
Shell pair information
Shell pair cut-off parameter TPreSel        ...   2.5e-12
Total number of shell pairs                 ...     20910
Shell pairs after pre-screening             ...     12304
Total number of primitive shell pairs       ...     75056
Primitive shell pairs kept                  ...     29034
          la=0 lb=0:   3887 shell pairs
          la=1 lb=0:   4600 shell pairs
          la=1 lb=1:   1412 shell pairs
          la=2 lb=0:   1417 shell pairs
          la=2 lb=1:    853 shell pairs
          la=2 lb=2:    135 shell pairs

Checking whether 4 symmetric matrices of dimension 432 fit in memory
:Max Core in MB      =   2500.00
 MB in use           =     15.51
 MB left             =   2484.49
 MB needed           =      2.85
 Data fit in memory  = YES
Calculating RI/J V-Matrix + Cholesky decomp.... done (  0.1 sec)
Calculating Nuclear repulsion               ... done (  0.0 sec) ENN=   1742.620917501880 Eh

Diagonalization of the overlap matrix:
Smallest eigenvalue                        ... 2.452e-04
Time for diagonalization                   ...    0.020 sec
Threshold for overlap eigenvalues          ... 1.000e-07
Number of eigenvalues below threshold      ... 0
Time for construction of square roots      ...    0.014 sec
Total time needed                          ...    0.036 sec

-------------------
DFT GRID GENERATION
-------------------

General Integration Accuracy     IntAcc      ... 4.388
Radial Grid Type                 RadialGrid  ... OptM3 with GC (2021)
Angular Grid (max. ang.)         AngularGrid ... 4 (Lebedev-302)
Angular grid pruning method      GridPruning ... 4 (adaptive)
Weight generation scheme         WeightScheme... mBecke (2022)
Basis function cutoff            BFCut       ... 1.0000e-11
Integration weight cutoff        WCut        ... 1.0000e-14
Partially contracted basis set               ... off
Rotationally invariant grid construction     ... off
Angular grids for H and He will be reduced by one unit

Total number of grid points                  ...   207519
Total number of batches                      ...     3267
Average number of points per batch           ...       63
Average number of grid points per atom       ...     4612

--------------------
COSX GRID GENERATION
--------------------

GRIDX 1
-------
General Integration Accuracy     IntAcc      ... 3.816
Radial Grid Type                 RadialGrid  ... OptM3 with GC (2021)
Angular Grid (max. ang.)         AngularGrid ... 1 (Lebedev-50)
Angular grid pruning method      GridPruning ... 4 (adaptive)
Weight generation scheme         WeightScheme... mBecke (2022)
Basis function cutoff            BFCut       ... 1.0000e-11
Integration weight cutoff        WCut        ... 1.0000e-14
Partially contracted basis set               ... on
Rotationally invariant grid construction     ... off
Angular grids for H and He will be reduced by one unit

Total number of grid points                  ...    26426
Total number of batches                      ...      232
Average number of points per batch           ...      113
Average number of grid points per atom       ...      587
UseSFitting                                  ... on

GRIDX 2
-------
General Integration Accuracy     IntAcc      ... 4.020
Radial Grid Type                 RadialGrid  ... OptM3 with GC (2021)
Angular Grid (max. ang.)         AngularGrid ... 2 (Lebedev-110)
Angular grid pruning method      GridPruning ... 4 (adaptive)
Weight generation scheme         WeightScheme... mBecke (2022)
Basis function cutoff            BFCut       ... 1.0000e-11
Integration weight cutoff        WCut        ... 1.0000e-14
Partially contracted basis set               ... on
Rotationally invariant grid construction     ... off
Angular grids for H and He will be reduced by one unit

Total number of grid points                  ...    56724
Total number of batches                      ...      469
Average number of points per batch           ...      120
Average number of grid points per atom       ...     1261
UseSFitting                                  ... on

GRIDX 3
-------
General Integration Accuracy     IntAcc      ... 4.338
Radial Grid Type                 RadialGrid  ... OptM3 with GC (2021)
Angular Grid (max. ang.)         AngularGrid ... 3 (Lebedev-194)
Angular grid pruning method      GridPruning ... 4 (adaptive)
Weight generation scheme         WeightScheme... mBecke (2022)
Basis function cutoff            BFCut       ... 1.0000e-11
Integration weight cutoff        WCut        ... 1.0000e-14
Partially contracted basis set               ... on
Rotationally invariant grid construction     ... off
Angular grids for H and He will be reduced by one unit

Total number of grid points                  ...   123890
Total number of batches                      ...      996
Average number of points per batch           ...      124
Average number of grid points per atom       ...     2753
UseSFitting                                  ... on
Grids setup in   4.2 sec
Initializing property integral containers    ... done (  0.1 sec)

SHARK setup successfully completed in   4.7 seconds

Maximum memory used throughout the entire STARTUP-calculation: 57.9 MB


           ************************************************************
           *        Program running with 4 parallel MPI-processes     *
           *              working on a common directory               *
           ************************************************************
-------------------------------------------------------------------------------
                                 ORCA GUESS
                   Start orbitals & Density for SCF / CASSCF
-------------------------------------------------------------------------------

------------
SCF SETTINGS
------------
Hamiltonian:
 Density Functional     Method          .... DFT(GTOs)
 Exchange Functional    Exchange        .... B88
   X-Alpha parameter    XAlpha          ....  0.666667
   Becke's b parameter  XBeta           ....  0.004200
 Correlation Functional Correlation     .... LYP
 LDA part of GGA corr.  LDAOpt          .... VWN-5
 Gradients option       PostSCFGGA      .... off
 Hybrid DFT is turned on
   Fraction HF Exchange ScalHFX         ....  0.200000
   Scaling of DF-GGA-X  ScalDFX         ....  0.720000
   Scaling of DF-GGA-C  ScalDFC         ....  0.810000
   Scaling of DF-LDA-C  ScalLDAC        ....  1.000000
   Perturbative correction              ....  0.000000
   NL short-range parameter             ....  4.800000
 RI-approximation to the Coulomb term is turned on
   Number of AuxJ basis functions       .... 1369
   RIJ-COSX (HFX calculated with COS-X)).... on


General Settings:
 Integral files         IntName         .... td
 Hartree-Fock type      HFTyp           .... RHF
 Total Charge           Charge          ....    0
 Multiplicity           Mult            ....    1
 Number of Electrons    NEL             ....  166
 Basis Dimension        Dim             ....  432
 Nuclear Repulsion      ENuc            ....   1742.6209175019 Eh

Convergence Acceleration:
 AO-DIIS                CNVDIIS         .... on
   Start iteration      DIISMaxIt       ....    12
   Startup error        DIISStart       ....  0.200000
   # of expansion vecs  DIISMaxEq       ....     5
   Bias factor          DIISBfac        ....   1.050
   Max. coefficient     DIISMaxC        ....  10.000
 MO-DIIS                CNVKDIIS        .... off
 Trust-Rad. Augm. Hess. CNVTRAH         .... auto
   Auto Start mean grad. ratio tolernc. ....  1.125000
   Auto Start start iteration           ....    50
   Auto Start num. interpolation iter.  ....    10
   Max. Number of Micro iterations      ....    24
   Max. Number of Macro iterations      .... Maxiter - #DIIS iter
   Number of Davidson start vectors     ....     2
   Converg. threshold    (grad. norm)   ....   1.000e-05
   Grad. Scal. Fac. for Micro threshold ....   0.100
   Minimum threshold for Micro iter.    ....   1.000e-02
   NR start threshold (gradient norm)   ....   1.000e-04
   Initial trust radius                 ....   0.400
   Minimum AH scaling param. (alpha)    ....   1.000
   Maximum AH scaling param. (alpha)    .... 1000.000
   Quad. conv. algorithm                .... NR
   White noise on init. David. guess    .... on
   Maximum white noise                  ....   0.010
   Pseudo random numbers                .... off
   Inactive MOs                         .... canonical
   Orbital update algorithm             .... Taylor
   Preconditioner                       .... Diag
   Full preconditioner red. dimension   ....   250
 SOSCF                 CNVSOSCF           .... on
   Start iteration     SOSCFMaxIt         ....   150
   Startup grad/error  SOSCFStart         ....  0.003300
   Hessian update      SOSCFHessUp        .... L-BFGS
   Autom. constraints  SOSCFAutoConstrain .... off
 Level Shifting         CNVShift        .... on
   Level shift para.    LevelShift      ....    0.2500
   Turn off err/grad.   ShiftErr        ....    0.0010
 Zerner damping         CNVZerner       .... off
 Static damping         CNVDamp         .... on
   Fraction old density DampFac         ....    0.7000
   Max. Damping (<1)    DampMax         ....    0.9800
   Min. Damping (>=0)   DampMin         ....    0.0000
   Turn off err/grad.   DampErr         ....    0.1000

SCF Procedure:
 Maximum # iterations   MaxIter         ....   300
 SCF integral mode      SCFMode         .... Direct
   Integral package                     .... SHARK and LIBINT hybrid scheme
 Reset frequency        DirectResetFreq ....    20
 Integral Threshold     Thresh          ....  2.500e-11 Eh
 Primitive CutOff       TCut            ....  2.500e-12 Eh

Convergence Tolerance:
 Convergence Check Mode ConvCheckMode   .... Total+1el-Energy
 Convergence forced     ConvForced      .... 1
 Energy Change          TolE            ....  1.000e-08 Eh
 1-El. energy change                    ....  1.000e-05 Eh
 Orbital Gradient       TolG            ....  1.000e-05
 Orbital Rotation angle TolX            ....  1.000e-05
 DIIS Error             TolErr          ....  5.000e-07

------------------------------
INITIAL GUESS: MODEL POTENTIAL
------------------------------
Loading Hartree-Fock densities                     ... done
Calculating cut-offs                               ... done
Initializing the effective Hamiltonian             ... done
Setting up the integral package (SHARK)            ... done
Starting the Coulomb interaction                   ... done (   0.5 sec)
Making the grid                                    ... done (   0.6 sec)
Mapping shells                                     ... done
Starting the XC term evaluation                    ... done (   0.5 sec)
  promolecular density results
     # of electrons  =    165.983284576
     EX              =   -134.071627377
     EC              =     -5.606948193
     EX+EC           =   -139.678575570
Transforming the Hamiltonian                       ... done (   0.0 sec)
Diagonalizing the Hamiltonian                      ... done (   0.0 sec)
Back transforming the eigenvectors                 ... done (   0.0 sec)
Now organizing SCF variables                       ... done
                      ------------------
                      INITIAL GUESS DONE (   1.7 sec)
                      ------------------
             **** ENERGY FILE WAS UPDATED (td.en.tmp) ****
Finished Guess after   2.0 sec
Maximum memory used throughout the entire GUESS-calculation: 21.8 MB


           ************************************************************
           *        Program running with 4 parallel MPI-processes     *
           *              working on a common directory               *
           ************************************************************

-------------------------------------------------------------------------------------------
                                      ORCA LEAN-SCF
                              memory conserving SCF solver
-------------------------------------------------------------------------------------------

--------------------
CPCM SOLVATION MODEL
--------------------
CPCM parameters:
  Epsilon                                         ...      25.4510
  Refrac                                          ...       1.3611
  Rsolv                                           ...       1.3000
  Surface type                                    ... GAUSSIAN VDW
  Discretization scheme                           ... Constant charge density
    Threshold for H atoms                         ...       5.0000 (charges/Ang^2)
    Threshold for non-H atoms                     ...       5.0000 (charges/Ang^2)
  Epsilon function type                           ...         CPCM
Solvent:                                          ... ETHANOL
Radii:
  Scheme                                          ... Element-dependent radii
  Radius for C  used is    3.8550 Bohr (=   2.0400 Ang.)
  Radius for O  used is    3.4469 Bohr (=   1.8240 Ang.)
  Radius for H  used is    2.4944 Bohr (=   1.3200 Ang.)
Calculating surface                               ...        done! (  0.0s)
Cavity surface points                             ...         3756
Cavity Volume                                     ...    2613.7387
Cavity Surface-area                               ...    1340.1927
Calculating surface distance matrix               ...        done! (  0.1s)
Performing Cholesky decomposition & store         ...        done! (  1.1s)
Overall time for CPCM initialization              ...                 1.3s

----------------------------------------D-I-I-S--------------------------------------------
Iteration    Energy (Eh)           Delta-E    RMSDP     MaxDP     DIISErr   Damp  Time(sec)
-------------------------------------------------------------------------------------------
               ***  Starting incremental Fock matrix formation  ***
    1    -999.1985178751378953     0.00e+00  4.47e-03  8.62e-02  2.45e-01  0.700  12.6
    2    -999.4399117473335536    -2.41e-01  3.11e-03  5.12e-02  1.02e-01  0.700   7.1
                               ***Turning on AO-DIIS***
    3    -999.5430889451586154    -1.03e-01  1.42e-03  2.14e-02  4.30e-02  0.700   7.1
    4    -999.6036801615241529    -6.06e-02  2.66e-03  3.41e-02  2.30e-02  0.000   6.7
    5    -999.7336836054287232    -1.30e-01  3.90e-04  6.89e-03  6.63e-03  0.000   6.6
                              *** Initializing SOSCF ***
---------------------------------------S-O-S-C-F--------------------------------------
Iteration    Energy (Eh)           Delta-E    RMSDP     MaxDP     MaxGrad    Time(sec)
--------------------------------------------------------------------------------------
    6    -999.7344033838326141    -7.20e-04  1.36e-04  2.38e-03  2.04e-03     6.2
               *** Restarting incremental Fock matrix formation ***
    7    -999.7343638645852479     3.95e-05  9.39e-05  1.15e-03  2.70e-04    12.6
    8    -999.7343664871568762    -2.62e-06  3.51e-05  7.61e-04  2.06e-04     8.7
    9    -999.7343708809912641    -4.39e-06  2.50e-05  6.09e-04  9.28e-05     7.7
   10    -999.7343708573807817     2.36e-08  1.03e-05  3.11e-04  6.34e-05     7.6
   11    -999.7343714869075484    -6.30e-07  4.97e-06  1.03e-04  1.34e-05     6.3
   12    -999.7343714816684042     5.24e-09  2.73e-06  5.87e-05  1.66e-05     6.3
                 **** Energy Check signals convergence ****

               *****************************************************
               *                     SUCCESS                       *
               *           SCF CONVERGED AFTER  12 CYCLES          *
               *****************************************************

Recomputing exchange energy using gridx3       ... done (   18.988 sec)
Old exchange energy                            :    -27.238328109 Eh
New exchange energy                            :    -27.238528832 Eh
Exchange energy change after final integration :     -0.000200723 Eh
Total energy after final integration           :   -999.734572226 Eh
             **** ENERGY FILE WAS UPDATED (td.en.tmp) ****

----------------
TOTAL SCF ENERGY
----------------

Total Energy       :       -999.73457222596096 Eh          -27204.16074 eV

Components:
Nuclear Repulsion  :       1742.62091750187983 Eh           47419.12591 eV
Electronic Energy  :      -2742.33965053152997 Eh          -74622.85564 eV
One Electron Energy:      -4818.59834588629110 Eh         -131120.72704 eV
Two Electron Energy:       2076.25869535476113 Eh           56497.87140 eV
CPCM Dielectric    :         -0.01563847316295 Eh              -0.42554 eV

Virial components:
Potential Energy   :      -1990.16037639467345 Eh          -54155.01703 eV
Kinetic Energy     :        990.42580416871249 Eh           26950.85629 eV
Virial Ratio       :          2.00939875356444

DFT components:
N(Alpha)           :       83.000016821674 electrons
N(Beta)            :       83.000016821674 electrons
N(Total)           :      166.000033643347 electrons
E(X)               :     -108.158629850116 Eh       
E(C)               :       -6.606146228071 Eh       
E(XC)              :     -114.764776078187 Eh       

CPCM Solvation Model Properties:
Surface-charge          :         -0.03155268565208
Corrected charge        :          0.00000000000000
Outlying charge corr.   :          0.00004694174414 Eh               0.00128 eV
Free-energy (cav+disp)  :  This term is not implemented in the current solvation scheme

---------------
SCF CONVERGENCE
---------------

  Last Energy change         ...   -5.2391e-09  Tolerance :   1.0000e-08
  Last MAX-Density change    ...    5.8703e-05  Tolerance :   1.0000e-07
  Last RMS-Density change    ...    2.7257e-06  Tolerance :   5.0000e-09
  Last DIIS Error            ...    2.0411e-03  Tolerance :   5.0000e-07
  Last Orbital Gradient      ...    1.6565e-05  Tolerance :   1.0000e-05
  Last Orbital Rotation      ...    3.1111e-05  Tolerance :   1.0000e-05


----------------
ORBITAL ENERGIES
----------------

  NO   OCC          E(Eh)            E(eV) 
   0   2.0000     -19.168302      -521.5960 
   1   2.0000     -19.164620      -521.4958 
   2   2.0000     -19.117728      -520.2198 
   3   2.0000     -10.270397      -279.4717 
   4   2.0000     -10.265664      -279.3429 
   5   2.0000     -10.254588      -279.0415 
   6   2.0000     -10.233072      -278.4560 
   7   2.0000     -10.196309      -277.4557 
   8   2.0000     -10.195028      -277.4208 
   9   2.0000     -10.194569      -277.4083 
  10   2.0000     -10.192838      -277.3612 
  11   2.0000     -10.192251      -277.3452 
  12   2.0000     -10.189756      -277.2773 
  13   2.0000     -10.188318      -277.2382 
  14   2.0000     -10.188293      -277.2376 
  15   2.0000     -10.187045      -277.2036 
  16   2.0000     -10.186205      -277.1807 
  17   2.0000     -10.182215      -277.0722 
  18   2.0000     -10.181918      -277.0641 
  19   2.0000     -10.171049      -276.7683 
  20   2.0000     -10.166642      -276.6484 
  21   2.0000     -10.166592      -276.6470 
  22   2.0000     -10.165033      -276.6046 
  23   2.0000      -1.065124       -28.9835 
  24   2.0000      -1.062419       -28.9099 
  25   2.0000      -1.014323       -27.6011 
  26   2.0000      -0.862938       -23.4817 
  27   2.0000      -0.861833       -23.4517 
  28   2.0000      -0.813584       -22.1388 
  29   2.0000      -0.787990       -21.4423 
  30   2.0000      -0.759299       -20.6616 
  31   2.0000      -0.750846       -20.4315 
  32   2.0000      -0.742728       -20.2107 
  33   2.0000      -0.731644       -19.9091 
  34   2.0000      -0.701336       -19.0843 
  35   2.0000      -0.675453       -18.3800 
  36   2.0000      -0.675095       -18.3703 
  37   2.0000      -0.647477       -17.6187 
  38   2.0000      -0.627900       -17.0860 
  39   2.0000      -0.615391       -16.7456 
  40   2.0000      -0.599248       -16.3064 
  41   2.0000      -0.577609       -15.7175 
  42   2.0000      -0.568641       -15.4735 
  43   2.0000      -0.546672       -14.8757 
  44   2.0000      -0.541445       -14.7335 
  45   2.0000      -0.516377       -14.0513 
  46   2.0000      -0.497617       -13.5409 
  47   2.0000      -0.484560       -13.1855 
  48   2.0000      -0.478064       -13.0088 
  49   2.0000      -0.471031       -12.8174 
  50   2.0000      -0.470186       -12.7944 
  51   2.0000      -0.453029       -12.3276 
  52   2.0000      -0.447858       -12.1868 
  53   2.0000      -0.443669       -12.0728 
  54   2.0000      -0.437384       -11.9018 
  55   2.0000      -0.435932       -11.8623 
  56   2.0000      -0.432419       -11.7667 
  57   2.0000      -0.428299       -11.6546 
  58   2.0000      -0.422055       -11.4847 
  59   2.0000      -0.416888       -11.3441 
  60   2.0000      -0.415173       -11.2974 
  61   2.0000      -0.399345       -10.8667 
  62   2.0000      -0.391550       -10.6546 
  63   2.0000      -0.391218       -10.6456 
  64   2.0000      -0.386823       -10.5260 
  65   2.0000      -0.381075       -10.3696 
  66   2.0000      -0.372417       -10.1340 
  67   2.0000      -0.371229       -10.1017 
  68   2.0000      -0.361250        -9.8301 
  69   2.0000      -0.357813        -9.7366 
  70   2.0000      -0.355905        -9.6847 
  71   2.0000      -0.349289        -9.5046 
  72   2.0000      -0.329872        -8.9763 
  73   2.0000      -0.329665        -8.9707 
  74   2.0000      -0.327941        -8.9237 
  75   2.0000      -0.324619        -8.8333 
  76   2.0000      -0.313596        -8.5334 
  77   2.0000      -0.268928        -7.3179 
  78   2.0000      -0.263529        -7.1710 
  79   2.0000      -0.259989        -7.0747 
  80   2.0000      -0.256560        -6.9814 
  81   2.0000      -0.248048        -6.7497 
  82   2.0000      -0.220027        -5.9872 
  83   0.0000      -0.071815        -1.9542 
  84   0.0000      -0.020018        -0.5447 
  85   0.0000      -0.013394        -0.3645 
  86   0.0000      -0.007176        -0.1953 
  87   0.0000       0.033251         0.9048 
  88   0.0000       0.062241         1.6937 
  89   0.0000       0.070919         1.9298 
  90   0.0000       0.079671         2.1679 
  91   0.0000       0.091541         2.4910 
  92   0.0000       0.096063         2.6140 
  93   0.0000       0.100478         2.7341 
*Only the first 10 virtual orbitals were printed.

                    ********************************
                    * MULLIKEN POPULATION ANALYSIS *
                    ********************************

-----------------------
MULLIKEN ATOMIC CHARGES
-----------------------
   0 C :    0.181320
   1 O :   -0.324011
   2 C :    0.246626
   3 C :   -0.083434
   4 C :   -0.008580
   5 C :    0.046373
   6 C :   -0.008935
   7 C :   -0.026514
   8 C :    0.175055
   9 O :   -0.188322
  10 C :   -0.192521
  11 C :    0.187654
  12 O :   -0.351917
  13 C :    0.039608
  14 C :   -0.005715
  15 C :   -0.039637
  16 C :    0.113007
  17 C :   -0.266576
  18 C :    0.090057
  19 C :    0.091850
  20 C :    0.111829
  21 C :   -0.046699
  22 C :   -0.012715
  23 H :    0.042240
  24 H :    0.036749
  25 H :    0.036440
  26 H :   -0.005965
  27 H :   -0.009118
  28 H :   -0.002428
  29 H :   -0.014151
  30 H :    0.199087
  31 H :    0.006250
  32 H :   -0.011975
  33 H :   -0.020016
  34 H :    0.004632
  35 H :    0.004855
  36 H :    0.005535
  37 H :    0.004692
  38 H :    0.005239
  39 H :    0.004776
  40 H :    0.007735
  41 H :    0.003276
  42 H :    0.007033
  43 H :   -0.007812
  44 H :   -0.024878
Sum of atomic charges:   -0.0000000

--------------------------------
MULLIKEN REDUCED ORBITAL CHARGES
--------------------------------
  0 C s       :     3.002773  s :     3.002773
      pz      :     0.965651  p :     2.763253
      px      :     0.792645
      py      :     1.004958
      dz2     :     0.011204  d :     0.052654
      dxz     :     0.011663
      dyz     :     0.006905
      dx2y2   :     0.008532
      dxy     :     0.014350

  1 O s       :     3.730209  s :     3.730209
      pz      :     1.703459  p :     4.577017
      px      :     1.253272
      py      :     1.620286
      dz2     :     0.002375  d :     0.016785
      dxz     :     0.002938
      dyz     :     0.002387
      dx2y2   :     0.002784
      dxy     :     0.006301

  2 C s       :     2.935731  s :     2.935731
      pz      :     0.959291  p :     2.741975
      px      :     0.860254
      py      :     0.922430
      dz2     :     0.008025  d :     0.075668
      dxz     :     0.012695
      dyz     :     0.011597
      dx2y2   :     0.020062
      dxy     :     0.023289

  3 C s       :     3.264379  s :     3.264379
      pz      :     1.004428  p :     2.785631
      px      :     0.852445
      py      :     0.928758
      dz2     :     0.003035  d :     0.033424
      dxz     :     0.004884
      dyz     :     0.005728
      dx2y2   :     0.010901
      dxy     :     0.008875

  4 C s       :     3.264577  s :     3.264577
      pz      :     0.947272  p :     2.707602
      px      :     0.943420
      py      :     0.816910
      dz2     :     0.003960  d :     0.036402
      dxz     :     0.007315
      dyz     :     0.004131
      dx2y2   :     0.011449
      dxy     :     0.009546

  5 C s       :     3.060043  s :     3.060043
      pz      :     1.033364  p :     2.853250
      px      :     0.905701
      py      :     0.914185
      dz2     :     0.005005  d :     0.040333
      dxz     :     0.005809
      dyz     :     0.006424
      dx2y2   :     0.010371
      dxy     :     0.012724

  6 C s       :     3.244589  s :     3.244589
      pz      :     0.925041  p :     2.727868
      px      :     0.855774
      py      :     0.947052
      dz2     :     0.003026  d :     0.036478
      dxz     :     0.005587
      dyz     :     0.006819
      dx2y2   :     0.010805
      dxy     :     0.010241

  7 C s       :     3.259027  s :     3.259027
      pz      :     1.004069  p :     2.734248
      px      :     0.929205
      py      :     0.800974
      dz2     :     0.003555  d :     0.033238
      dxz     :     0.006609
      dyz     :     0.003852
      dx2y2   :     0.010243
      dxy     :     0.008979

  8 C s       :     3.087746  s :     3.087746
      pz      :     0.871034  p :     2.655387
      px      :     0.956121
      py      :     0.828232
      dz2     :     0.005613  d :     0.081812
      dxz     :     0.009727
      dyz     :     0.017052
      dx2y2   :     0.024849
      dxy     :     0.024572

  9 O s       :     3.665213  s :     3.665213
      pz      :     1.726794  p :     4.509041
      px      :     1.516247
      py      :     1.266000
      dz2     :     0.001911  d :     0.014068
      dxz     :     0.000800
      dyz     :     0.002426
      dx2y2   :     0.005110
      dxy     :     0.003821

 10 C s       :     3.224340  s :     3.224340
      pz      :     1.173613  p :     2.940249
      px      :     0.914019
      py      :     0.852617
      dz2     :     0.002679  d :     0.027932
      dxz     :     0.003640
      dyz     :     0.002186
      dx2y2   :     0.009634
      dxy     :     0.009793

 11 C s       :     3.079708  s :     3.079708
      pz      :     0.809413  p :     2.640166
      px      :     0.945585
      py      :     0.885167
      dz2     :     0.005226  d :     0.092472
      dxz     :     0.006768
      dyz     :     0.020108
      dx2y2   :     0.023939
      dxy     :     0.036431

 12 O s       :     3.753295  s :     3.753295
      pz      :     1.478752  p :     4.583431
      px      :     1.769733
      py      :     1.334947
      dz2     :     0.001753  d :     0.015190
      dxz     :     0.000050
      dyz     :     0.004532
      dx2y2   :     0.005693
      dxy     :     0.003162

 13 C s       :     3.084082  s :     3.084082
      pz      :     1.013966  p :     2.836300
      px      :     0.914513
      py      :     0.907821
      dz2     :     0.004544  d :     0.040009
      dxz     :     0.005119
      dyz     :     0.005952
      dx2y2   :     0.011932
      dxy     :     0.012462

 14 C s       :     3.244454  s :     3.244454
      pz      :     0.938771  p :     2.725137
      px      :     0.859495
      py      :     0.926872
      dz2     :     0.003050  d :     0.036123
      dxz     :     0.005732
      dyz     :     0.005368
      dx2y2   :     0.010407
      dxy     :     0.011566

 15 C s       :     3.255891  s :     3.255891
      pz      :     0.983467  p :     2.748498
      px      :     0.931126
      py      :     0.833905
      dz2     :     0.002968  d :     0.035249
      dxz     :     0.006764
      dyz     :     0.003584
      dx2y2   :     0.011879
      dxy     :     0.010054

 16 C s       :     3.067506  s :     3.067506
      pz      :     0.928523  p :     2.776586
      px      :     0.925510
      py      :     0.922554
      dz2     :     0.004396  d :     0.042901
      dxz     :     0.007286
      dyz     :     0.006008
      dx2y2   :     0.012831
      dxy     :     0.012380

 17 C s       :     3.197774  s :     3.197774
      pz      :     1.015244  p :     3.016520
      px      :     0.978408
      py      :     1.022868
      dz2     :     0.012060  d :     0.052281
      dxz     :     0.009092
      dyz     :     0.009959
      dx2y2   :     0.011322
      dxy     :     0.009849

 18 C s       :     2.958224  s :     2.958224
      pz      :     0.946871  p :     2.922625
      px      :     0.981423
      py      :     0.994331
      dz2     :     0.006532  d :     0.029094
      dxz     :     0.005375
      dyz     :     0.006479
      dx2y2   :     0.006368
      dxy     :     0.004340

 19 C s       :     2.956856  s :     2.956856
      pz      :     0.972813  p :     2.922197
      px      :     0.971119
      py      :     0.978265
      dz2     :     0.008465  d :     0.029097
      dxz     :     0.004199
      dyz     :     0.003865
      dx2y2   :     0.008274
      dxy     :     0.004295

 20 C s       :     2.923758  s :     2.923758
      pz      :     0.982776  p :     2.935533
      px      :     0.979555
      py      :     0.973202
      dz2     :     0.007562  d :     0.028880
      dxz     :     0.003485
      dyz     :     0.005409
      dx2y2   :     0.006469
      dxy     :     0.005955

 21 C s       :     3.261145  s :     3.261145
      pz      :     0.973746  p :     2.750178
      px      :     0.854454
      py      :     0.921978
      dz2     :     0.002935  d :     0.035376
      dxz     :     0.005271
      dyz     :     0.004909
      dx2y2   :     0.010291
      dxy     :     0.011971

 22 C s       :     3.268330  s :     3.268330
      pz      :     0.953526  p :     2.708374
      px      :     0.942012
      py      :     0.812836
      dz2     :     0.002935  d :     0.036011
      dxz     :     0.007357
      dyz     :     0.003390
      dx2y2   :     0.011558
      dxy     :     0.010770

 23 H s       :     0.935645  s :     0.935645
      pz      :     0.004458  p :     0.022116
      px      :     0.007096
      py      :     0.010562

 24 H s       :     0.940242  s :     0.940242
      pz      :     0.006884  p :     0.023010
      px      :     0.005288
      py      :     0.010837

 25 H s       :     0.940543  s :     0.940543
      pz      :     0.014100  p :     0.023017
      px      :     0.003122
      py      :     0.005795

 26 H s       :     0.981735  s :     0.981735
      pz      :     0.007176  p :     0.024230
      px      :     0.011219
      py      :     0.005835

 27 H s       :     0.985280  s :     0.985280
      pz      :     0.005350  p :     0.023838
      px      :     0.003687
      py      :     0.014802

 28 H s       :     0.978487  s :     0.978487
      pz      :     0.006974  p :     0.023941
      px      :     0.011318
      py      :     0.005648

 29 H s       :     0.990431  s :     0.990431
      pz      :     0.005646  p :     0.023720
      px      :     0.003604
      py      :     0.014469

 30 H s       :     0.724353  s :     0.724353
      pz      :     0.014371  p :     0.076559
      px      :     0.044269
      py      :     0.017919

 31 H s       :     0.968816  s :     0.968816
      pz      :     0.005817  p :     0.024934
      px      :     0.003777
      py      :     0.015339

 32 H s       :     0.988119  s :     0.988119
      pz      :     0.006061  p :     0.023856
      px      :     0.010512
      py      :     0.007283

 33 H s       :     0.996015  s :     0.996015
      pz      :     0.006016  p :     0.024001
      px      :     0.004001
      py      :     0.013984

 34 H s       :     0.971442  s :     0.971442
      pz      :     0.004169  p :     0.023926
      px      :     0.013083
      py      :     0.006674

 35 H s       :     0.971384  s :     0.971384
      pz      :     0.007596  p :     0.023761
      px      :     0.008171
      py      :     0.007993

 36 H s       :     0.970327  s :     0.970327
      pz      :     0.005553  p :     0.024138
      px      :     0.005338
      py      :     0.013247

 37 H s       :     0.971378  s :     0.971378
      pz      :     0.004893  p :     0.023930
      px      :     0.013031
      py      :     0.006007

 38 H s       :     0.970650  s :     0.970650
      pz      :     0.005761  p :     0.024112
      px      :     0.005028
      py      :     0.013323

 39 H s       :     0.971472  s :     0.971472
      pz      :     0.013027  p :     0.023752
      px      :     0.005779
      py      :     0.004947

 40 H s       :     0.968262  s :     0.968262
      pz      :     0.013515  p :     0.024004
      px      :     0.006247
      py      :     0.004242

 41 H s       :     0.972885  s :     0.972885
      pz      :     0.005257  p :     0.023839
      px      :     0.013376
      py      :     0.005207

 42 H s       :     0.968970  s :     0.968970
      pz      :     0.007841  p :     0.023997
      px      :     0.008193
      py      :     0.007962

 43 H s       :     0.983965  s :     0.983965
      pz      :     0.005843  p :     0.023847
      px      :     0.010573
      py      :     0.007432

 44 H s       :     1.001163  s :     1.001163
      pz      :     0.005424  p :     0.023714
      px      :     0.004080
      py      :     0.014210



                     *******************************
                     * LOEWDIN POPULATION ANALYSIS *
                     *******************************

----------------------
LOEWDIN ATOMIC CHARGES
----------------------
   0 C :    0.087572
   1 O :   -0.102906
   2 C :    0.061293
   3 C :   -0.068390
   4 C :    0.009784
   5 C :   -0.073031
   6 C :    0.004898
   7 C :   -0.046135
   8 C :    0.114171
   9 O :   -0.030584
  10 C :   -0.165450
  11 C :    0.083508
  12 O :   -0.241507
  13 C :   -0.067108
  14 C :   -0.006154
  15 C :   -0.031076
  16 C :    0.008139
  17 C :   -0.046465
  18 C :   -0.029834
  19 C :   -0.029658
  20 C :   -0.035760
  21 C :   -0.023149
  22 C :   -0.000519
  23 H :    0.031363
  24 H :    0.021830
  25 H :    0.021851
  26 H :    0.037650
  27 H :    0.032876
  28 H :    0.037353
  29 H :    0.035411
  30 H :    0.064447
  31 H :    0.032611
  32 H :    0.033033
  33 H :    0.030987
  34 H :    0.021777
  35 H :    0.021540
  36 H :    0.019687
  37 H :    0.021837
  38 H :    0.019732
  39 H :    0.021528
  40 H :    0.020978
  41 H :    0.023716
  42 H :    0.020945
  43 H :    0.030155
  44 H :    0.027053

-------------------------------
LOEWDIN REDUCED ORBITAL CHARGES
-------------------------------
  0 C s       :     2.841662  s :     2.841662
      pz      :     1.024171  p :     2.949637
      px      :     0.862494
      py      :     1.062971
      dz2     :     0.027455  d :     0.121129
      dxz     :     0.024697
      dyz     :     0.016736
      dx2y2   :     0.017140
      dxy     :     0.035102

  1 O s       :     3.432916  s :     3.432916
      pz      :     1.695951  p :     4.638505
      px      :     1.303679
      py      :     1.638875
      dz2     :     0.004043  d :     0.031485
      dxz     :     0.005965
      dyz     :     0.003192
      dx2y2   :     0.005966
      dxy     :     0.012319

  2 C s       :     2.836840  s :     2.836840
      pz      :     0.969783  p :     2.925858
      px      :     0.932286
      py      :     1.023789
      dz2     :     0.017235  d :     0.176008
      dxz     :     0.027553
      dyz     :     0.025422
      dx2y2   :     0.048988
      dxy     :     0.056810

  3 C s       :     2.851879  s :     2.851879
      pz      :     1.031014  p :     3.126300
      px      :     1.051596
      py      :     1.043690
      dz2     :     0.007110  d :     0.090212
      dxz     :     0.011392
      dyz     :     0.014144
      dx2y2   :     0.030766
      dxy     :     0.026800

  4 C s       :     2.851980  s :     2.851980
      pz      :     0.962473  p :     3.043427
      px      :     1.040799
      py      :     1.040155
      dz2     :     0.009057  d :     0.094809
      dxz     :     0.017944
      dyz     :     0.009293
      dx2y2   :     0.031788
      dxy     :     0.026728

  5 C s       :     2.841398  s :     2.841398
      pz      :     1.037891  p :     3.123354
      px      :     1.029536
      py      :     1.055926
      dz2     :     0.011336  d :     0.108279
      dxz     :     0.014066
      dyz     :     0.015832
      dx2y2   :     0.030480
      dxy     :     0.036565

  6 C s       :     2.851247  s :     2.851247
      pz      :     0.968315  p :     3.049087
      px      :     1.041931
      py      :     1.038841
      dz2     :     0.007115  d :     0.094768
      dxz     :     0.012901
      dyz     :     0.016176
      dx2y2   :     0.029737
      dxy     :     0.028839

  7 C s       :     2.855372  s :     2.855372
      pz      :     1.013753  p :     3.101583
      px      :     1.048528
      py      :     1.039302
      dz2     :     0.008180  d :     0.089180
      dxz     :     0.016862
      dyz     :     0.008895
      dx2y2   :     0.029096
      dxy     :     0.026147

  8 C s       :     2.846952  s :     2.846952
      pz      :     0.855845  p :     2.854273
      px      :     1.086639
      py      :     0.911789
      dz2     :     0.011865  d :     0.184604
      dxz     :     0.019528
      dyz     :     0.034426
      dx2y2   :     0.058569
      dxy     :     0.060216

  9 O s       :     3.416073  s :     3.416073
      pz      :     1.699843  p :     4.587728
      px      :     1.560441
      py      :     1.327444
      dz2     :     0.003833  d :     0.026784
      dxz     :     0.000552
      dyz     :     0.003699
      dx2y2   :     0.010722
      dxy     :     0.007977

 10 C s       :     2.856685  s :     2.856685
      pz      :     1.142678  p :     3.226772
      px      :     1.036968
      py      :     1.047126
      dz2     :     0.007200  d :     0.081992
      dxz     :     0.008110
      dyz     :     0.004061
      dx2y2   :     0.031480
      dxy     :     0.031141

 11 C s       :     2.853956  s :     2.853956
      pz      :     0.798206  p :     2.846847
      px      :     1.049160
      py      :     0.999481
      dz2     :     0.012391  d :     0.215689
      dxz     :     0.013072
      dyz     :     0.039737
      dx2y2   :     0.059587
      dxy     :     0.090902

 12 O s       :     3.543562  s :     3.543562
      pz      :     1.477193  p :     4.671175
      px      :     1.743612
      py      :     1.450369
      dz2     :     0.003771  d :     0.026770
      dxz     :     0.000067
      dyz     :     0.005616
      dx2y2   :     0.011561
      dxy     :     0.005756

 13 C s       :     2.852282  s :     2.852282
      pz      :     1.008689  p :     3.107178
      px      :     1.037950
      py      :     1.060539
      dz2     :     0.010744  d :     0.107648
      dxz     :     0.011703
      dyz     :     0.014555
      dx2y2   :     0.034228
      dxy     :     0.036419

 14 C s       :     2.853008  s :     2.853008
      pz      :     0.967851  p :     3.058667
      px      :     1.054769
      py      :     1.036047
      dz2     :     0.007250  d :     0.094479
      dxz     :     0.013000
      dyz     :     0.012621
      dx2y2   :     0.029051
      dxy     :     0.032557

 15 C s       :     2.850819  s :     2.850819
      pz      :     0.993418  p :     3.086769
      px      :     1.057655
      py      :     1.035695
      dz2     :     0.007060  d :     0.093488
      dxz     :     0.016051
      dyz     :     0.007950
      dx2y2   :     0.033723
      dxy     :     0.028705

 16 C s       :     2.856027  s :     2.856027
      pz      :     0.931746  p :     3.026308
      px      :     1.041587
      py      :     1.052975
      dz2     :     0.009849  d :     0.109525
      dxz     :     0.015665
      dyz     :     0.014557
      dx2y2   :     0.035379
      dxy     :     0.034075

 17 C s       :     2.840812  s :     2.840812
      pz      :     1.034843  p :     3.086332
      px      :     1.018692
      py      :     1.032797
      dz2     :     0.027806  d :     0.119321
      dxz     :     0.020438
      dyz     :     0.021149
      dx2y2   :     0.027303
      dxy     :     0.022625

 18 C s       :     2.833847  s :     2.833847
      pz      :     1.008655  p :     3.121704
      px      :     1.052786
      py      :     1.060263
      dz2     :     0.017970  d :     0.074284
      dxz     :     0.013843
      dyz     :     0.015465
      dx2y2   :     0.016043
      dxy     :     0.010964

 19 C s       :     2.833742  s :     2.833742
      pz      :     1.040577  p :     3.121617
      px      :     1.038805
      py      :     1.042235
      dz2     :     0.020694  d :     0.074299
      dxz     :     0.011283
      dyz     :     0.010475
      dx2y2   :     0.020223
      dxy     :     0.011624

 20 C s       :     2.831516  s :     2.831516
      pz      :     1.052362  p :     3.130099
      px      :     1.061652
      py      :     1.016085
      dz2     :     0.019328  d :     0.074145
      dxz     :     0.008919
      dyz     :     0.013759
      dx2y2   :     0.017742
      dxy     :     0.014396

 21 C s       :     2.850640  s :     2.850640
      pz      :     0.983213  p :     3.078807
      px      :     1.051221
      py      :     1.044372
      dz2     :     0.006955  d :     0.093703
      dxz     :     0.011901
      dyz     :     0.011544
      dx2y2   :     0.029154
      dxy     :     0.034149

 22 C s       :     2.853797  s :     2.853797
      pz      :     0.960918  p :     3.052555
      px      :     1.057933
      py      :     1.033704
      dz2     :     0.006983  d :     0.094167
      dxz     :     0.017079
      dyz     :     0.007272
      dx2y2   :     0.032772
      dxy     :     0.030060

 23 H s       :     0.904437  s :     0.904437
      pz      :     0.011630  p :     0.064199
      px      :     0.022047
      py      :     0.030523

 24 H s       :     0.912053  s :     0.912053
      pz      :     0.019092  p :     0.066117
      px      :     0.015778
      py      :     0.031247

 25 H s       :     0.912016  s :     0.912016
      pz      :     0.041410  p :     0.066133
      px      :     0.009780
      py      :     0.014943

 26 H s       :     0.889321  s :     0.889321
      pz      :     0.022318  p :     0.073029
      px      :     0.032459
      py      :     0.018252

 27 H s       :     0.895571  s :     0.895571
      pz      :     0.016636  p :     0.071553
      px      :     0.012204
      py      :     0.042713

 28 H s       :     0.891706  s :     0.891706
      pz      :     0.020821  p :     0.070942
      px      :     0.032604
      py      :     0.017517

 29 H s       :     0.893345  s :     0.893345
[...]
    79a ->  85a  :     0.581486 (c= -0.76255208)
    80a ->  85a  :     0.046039 (c= -0.21456699)
    81a ->  85a  :     0.059212 (c= -0.24333479)

Storing amplitudes in GBW file ... 
... GBW file created

-----------------------------
TD-DFT/TDA-EXCITATION SPECTRA
-----------------------------

Center of mass = (  1.2013, -0.5024,  0.0082)
Generating CIS transition densities           ... done

----------------------------------------------------------------------------------------------------
                     ABSORPTION SPECTRUM VIA TRANSITION ELECTRIC DIPOLE MOMENTS    
----------------------------------------------------------------------------------------------------
     Transition      Energy     Energy  Wavelength fosc(D2)      D2        DX        DY        DZ   
                      (eV)      (cm-1)    (nm)                 (au**2)    (au)      (au)      (au)  
----------------------------------------------------------------------------------------------------
  0-1A  ->  1-1A    3.698558   29830.9   335.2   1.155012141  12.74665  -3.50538  -0.57796  -0.35346
  0-1A  ->  2-1A    3.884548   31331.0   319.2   0.018048066   0.18964  -0.39300  -0.15561  -0.10475
  0-1A  ->  3-1A    4.451774   35906.0   278.5   0.158556285   1.45376   0.92837  -0.76927  -0.01029
  0-1A  ->  4-1A    4.507822   36358.0   275.0   0.030282257   0.27420   0.51009   0.00965  -0.11795
  0-1A  ->  5-1A    4.614355   37217.3   268.7   0.011780564   0.10421  -0.18353   0.26553   0.00434
  0-1A  ->  6-1A    4.892391   39459.8   253.4   0.020940484   0.17471   0.33282   0.25265  -0.01006
  0-1A  ->  7-1A    5.082135   40990.2   244.0   0.118434692   0.95121   0.67615   0.70268   0.01617
  0-1A  ->  8-1A    5.180256   41781.6   239.3   0.079924454   0.62975   0.65810  -0.32817   0.29826
  0-1A  ->  9-1A    5.322828   42931.5   232.9   0.029927865   0.22950  -0.40182  -0.15764  -0.20782
  0-1A  -> 10-1A    5.608348   45234.4   221.1   0.020716419   0.15077  -0.25074   0.29648   0.00239
  0-1A  -> 11-1A    5.739707   46293.9   216.0   0.022182510   0.15775   0.37586   0.12759  -0.01402
  0-1A  -> 12-1A    5.777319   46597.2   214.6   0.023048635   0.16284  -0.31456  -0.25124  -0.02771
  0-1A  -> 13-1A    5.850734   47189.4   211.9   0.060111975   0.41937  -0.53333   0.33364  -0.15368
  0-1A  -> 14-1A    5.960100   48071.5   208.0   0.001343810   0.00920   0.04588  -0.06481  -0.05384
  0-1A  -> 15-1A    6.015536   48518.6   206.1   0.022533080   0.15289  -0.30702   0.22462   0.09044
  0-1A  -> 16-1A    6.074771   48996.3   204.1   0.000941273   0.00632   0.06675   0.01846   0.03910
  0-1A  -> 17-1A    6.110041   49280.8   202.9   0.033182785   0.22167  -0.33316   0.33165   0.02611
  0-1A  -> 18-1A    6.231886   50263.6   199.0   0.021741804   0.14240  -0.36425  -0.09241  -0.03447

----------------------------------------------------------------------------------------------------
                     ABSORPTION SPECTRUM VIA TRANSITION VELOCITY DIPOLE MOMENTS    
----------------------------------------------------------------------------------------------------
     Transition      Energy     Energy  Wavelength fosc(P2)      P2        PX        PY        PZ   
                      (eV)      (cm-1)    (nm)                 (au**2)    (au)      (au)      (au)  
----------------------------------------------------------------------------------------------------
  0-1A  ->  1-1A    3.698558   29830.9   335.2   0.576481824   0.11753   0.34099   0.01306   0.03294
  0-1A  ->  2-1A    3.884548   31331.0   319.2   0.006363987   0.00136   0.03690  -0.00024   0.00101
  0-1A  ->  3-1A    4.451774   35906.0   278.5   0.058773443   0.01442  -0.12008   0.00197  -0.00056
  0-1A  ->  4-1A    4.507822   36358.0   275.0   0.011330715   0.00282  -0.05195   0.00905  -0.00590
  0-1A  ->  5-1A    4.614355   37217.3   268.7   0.002843963   0.00072   0.02679  -0.00213  -0.00110
  0-1A  ->  6-1A    4.892391   39459.8   253.4   0.002103109   0.00057  -0.02286  -0.00667  -0.00046
  0-1A  ->  7-1A    5.082135   40990.2   244.0   0.037757471   0.01058  -0.09094  -0.04004  -0.02653
  0-1A  ->  8-1A    5.180256   41781.6   239.3   0.008703653   0.00249  -0.04642  -0.01670  -0.00716
  0-1A  ->  9-1A    5.322828   42931.5   232.9   0.019167143   0.00562   0.05809   0.04376   0.01828
  0-1A  -> 10-1A    5.608348   45234.4   221.1   0.007870575   0.00243   0.04812  -0.01007  -0.00401
  0-1A  -> 11-1A    5.739707   46293.9   216.0   0.013723084   0.00434  -0.06528  -0.00016  -0.00900
  0-1A  -> 12-1A    5.777319   46597.2   214.6   0.011828314   0.00377   0.06118   0.00297   0.00383
  0-1A  -> 13-1A    5.850734   47189.4   211.9   0.036870185   0.01189   0.10507  -0.02799   0.00827
  0-1A  -> 14-1A    5.960100   48071.5   208.0   0.000589984   0.00019  -0.00971   0.00709   0.00702
  0-1A  -> 15-1A    6.015536   48518.6   206.1   0.013964599   0.00463   0.06674  -0.01164  -0.00643
  0-1A  -> 16-1A    6.074771   48996.3   204.1   0.000351090   0.00012  -0.01009  -0.00302  -0.00257
  0-1A  -> 17-1A    6.110041   49280.8   202.9   0.015116728   0.00509   0.06979  -0.01189  -0.00890
  0-1A  -> 18-1A    6.231886   50263.6   199.0   0.008904891   0.00306   0.05462   0.00750   0.00444

------------------------------------------------------------------------------------------
                     CD SPECTRUM VIA TRANSITION ELECTRIC DIPOLE MOMENTS    
------------------------------------------------------------------------------------------
     Transition      Energy     Energy  Wavelength    R        MX        MY        MZ   
                      (eV)      (cm-1)    (nm)   (1e40*cgs)   (au)      (au)      (au)  
------------------------------------------------------------------------------------------
  0-1A  ->  1-1A    3.698558   29830.9   335.2   27.36321   0.00489  -0.15716   0.37273
  0-1A  ->  2-1A    3.884548   31331.0   319.2   16.67931   0.00150   0.19858   0.03712
  0-1A  ->  3-1A    4.451774   35906.0   278.5  -36.42468   0.06962  -0.01308  -0.24908
  0-1A  ->  4-1A    4.507822   36358.0   275.0   -8.06602   0.03402   0.00495   0.00248
  0-1A  ->  5-1A    4.614355   37217.3   268.7   10.32998   0.02851  -0.06128  -0.09394
  0-1A  ->  6-1A    4.892391   39459.8   253.4    4.28992  -0.01722  -0.01368  -0.00880
  0-1A  ->  7-1A    5.082135   40990.2   244.0  -25.71395   0.00782   0.07223  -0.09242
  0-1A  ->  8-1A    5.180256   41781.6   239.3    2.22163  -0.00815   0.02888   0.03397
  0-1A  ->  9-1A    5.322828   42931.5   232.9    2.88548   0.01322  -0.07007   0.05704
  0-1A  -> 10-1A    5.608348   45234.4   221.1   12.32482   0.00557  -0.08359   0.01494
  0-1A  -> 11-1A    5.739707   46293.9   216.0    6.68226  -0.07849   0.11396  -0.05621
  0-1A  -> 12-1A    5.777319   46597.2   214.6    0.74992   0.03550  -0.02930  -0.07987
  0-1A  -> 13-1A    5.850734   47189.4   211.9   13.10967  -0.03110  -0.06103   0.15636
  0-1A  -> 14-1A    5.960100   48071.5   208.0   -0.19760  -0.02693   0.02514  -0.06100
  0-1A  -> 15-1A    6.015536   48518.6   206.1  -20.36013  -0.10194  -0.00397   0.14131
  0-1A  -> 16-1A    6.074771   48996.3   204.1    1.64069   0.00153   0.01282  -0.09769
  0-1A  -> 17-1A    6.110041   49280.8   202.9   -4.35911  -0.01824  -0.00686   0.20848
  0-1A  -> 18-1A    6.231886   50263.6   199.0   -1.97786  -0.00099  -0.05057   0.02434

------------------------------------------------------------------------------------------
                     CD SPECTRUM VIA TRANSITION VELOCITY DIPOLE MOMENTS    
------------------------------------------------------------------------------------------
     Transition      Energy     Energy  Wavelength    R        MX        MY        MZ   
                      (eV)      (cm-1)    (nm)   (1e40*cgs)   (au)      (au)      (au)  
------------------------------------------------------------------------------------------
  0-1A  ->  1-1A    3.698558   29830.9   335.2   41.25431   0.00489  -0.15716   0.37273
  0-1A  ->  2-1A    3.884548   31331.0   319.2    0.14966   0.00150   0.19858   0.03712
  0-1A  ->  3-1A    4.451774   35906.0   278.5  -23.76232   0.06962  -0.01308  -0.24908
  0-1A  ->  4-1A    4.507822   36358.0   275.0   -4.94387   0.03402   0.00495   0.00248
  0-1A  ->  5-1A    4.614355   37217.3   268.7    2.77436   0.02851  -0.06128  -0.09394
  0-1A  ->  6-1A    4.892391   39459.8   253.4    1.28198  -0.01722  -0.01368  -0.00880
  0-1A  ->  7-1A    5.082135   40990.2   244.0   -2.90503   0.00782   0.07223  -0.09242
  0-1A  ->  8-1A    5.180256   41781.6   239.3   -0.85978  -0.00815   0.02888   0.03397
  0-1A  ->  9-1A    5.322828   42931.5   232.9   -3.02647   0.01322  -0.07007   0.05704
  0-1A  -> 10-1A    5.608348   45234.4   221.1    2.40068   0.00557  -0.08359   0.01494
  0-1A  -> 11-1A    5.739707   46293.9   216.0   12.54141  -0.07849   0.11396  -0.05621
  0-1A  -> 12-1A    5.777319   46597.2   214.6    3.94940   0.03550  -0.02930  -0.07987
  0-1A  -> 13-1A    5.850734   47189.4   211.9   -0.58111  -0.03110  -0.06103   0.15636
  0-1A  -> 14-1A    5.960100   48071.5   208.0    0.02504  -0.02693   0.02514  -0.06100
  0-1A  -> 15-1A    6.015536   48518.6   206.1  -16.34826  -0.10194  -0.00397   0.14131
  0-1A  -> 16-1A    6.074771   48996.3   204.1    0.41661   0.00153   0.01282  -0.09769
  0-1A  -> 17-1A    6.110041   49280.8   202.9   -6.39685  -0.01824  -0.00686   0.20848
  0-1A  -> 18-1A    6.231886   50263.6   199.0   -0.66960  -0.00099  -0.05057   0.02434

Total run time:      246.106 sec

           *** ORCA-CIS/TD-DFT FINISHED WITHOUT ERROR ***
-----------------------
CIS/TD-DFT TOTAL ENERGY
-----------------------

    E(SCF)  =   -999.734572226 Eh
    DE(CIS) =      0.135919528 Eh (Root  1)
    ----------------------------- ---------
    E(tot)  =   -999.598652698 Eh


Maximum memory used throughout the entire CIS-calculation: 725.8 MB
=> NOW LEAVING ORCA_CIS

-------------------------   --------------------
FINAL SINGLE POINT ENERGY      -999.598652697533
-------------------------   --------------------



           ************************************************************
           *        Program running with 4 parallel MPI-processes     *
           *              working on a common directory               *
           ************************************************************

------------------------------------------------------------------------------
                              ORCA PROPERTY CALCULATIONS
------------------------------------------------------------------------------

GBWName                                 ... td.gbw
Number of atoms                         ...     45
Number of basis functions               ...    432
Max core memory                         ...   2500 MB

Electric properties:
Dipole moment                           ... YES
Quadrupole moment                       ...  NO
Static polarizability (Dipole/Dipole)   ...  NO
Static polarizability (Dipole/Quad.)    ...  NO
Static polarizability (Quad./Quad.)     ...  NO
Static polarizability (Velocity)        ...  NO
Static hyperpolarizability              ...  NO

Atomic electric properties:
Dipole moment                           ...  NO
Quadrupole moment                       ...  NO
Static polarizability                   ...  NO

Choice of electric origin               ... Center of mass
Position of electric origin             ...     1.201272    -0.502435     0.008214

General magnetic properties:
Magnetizability                         ...  NO

EPR properties:
g-Tensor (aka g-matrix)                 ...  NO
Zero-Field splitting spin-orbit         ...  NO
Zero-field splitting spin-spin          ...  NO
Hyperfine couplings                     ...  NO (   0 nuclei)
Quadrupole couplings                    ...  NO (   0 nuclei)
Contact density                         ...  NO (   0 nuclei)

NMR properties:
Chemical shifts                         ...  NO (   0 nuclei)
Spin-rotation constants                 ...  NO (   0 nuclei)
Spin-spin couplings                     ...  NO (   0 nuclei,    0 pairs)

Choice of magnetic origin               ... GIAO
Position of magnetic origin             ...     0.000000     0.000000     0.000000

Properties with geometric perturbations:
SCF Hessian                             ...  NO
IR spectrum                             ...  NO
VCD spectrum                            ...  NO
X-ray spectroscopy properties:
SCF XES/XAS/RIXS spectra                ...  NO

SCF SOC stabilization energy            ...  NO
Diagonal Born-Oppenheimer correction    ...  NO

-------------
DIPOLE MOMENT
-------------

Method             : SCF
Type of density    : Electron Density
Multiplicity       :   1
Irrep              :   0
Energy             :  -999.7345722259609602 Eh
Basis              : AO
                                X                 Y                 Z
Electronic contribution:     27.023450477      -9.557792030      -0.788124756
Nuclear contribution   :    -26.387387460      11.151247937       1.278706064
                        -----------------------------------------
Total Dipole Moment    :      0.636063017       1.593455907       0.490581308
                        -----------------------------------------
Magnitude (a.u.)       :      1.784474126
Magnitude (Debye)      :      4.535772765



--------------------
Rotational spectrum 
--------------------
 
Rotational constants in cm-1:             0.022788             0.002639             0.002432 
Rotational constants in MHz :           683.157990            79.110665            72.911629 

Dipole components along the rotational axes: 
x,y,z [a.u.] :    -0.727700    -1.573110    -0.424410 
x,y,z [Debye]:    -1.849666    -3.998529    -1.078766 

 

Dipole moment calculation done in   0.0 sec 

Maximum memory used throughout the entire PROP-calculation: 22.8 MB

--------------------------------
SUGGESTED CITATIONS FOR THIS RUN
--------------------------------

Below you find a list of papers that are relevant to this ORCA run
We neither can nor want to force you to cite these papers, but we appreciate if you do
You receive ORCA, which is the product of decades of hard work by many enthusiastic individuals, for free
The only thing we kindly ask in return is that you cite our papers,
We deeply appreciate it, if you show your appreciation for ORCA by not just citing the generic ORCA reference.

Please note that relegating all ORCA citations to the supporting information does *not* help us.
SI sections are not indexed - citations you put there will not count into any citation statistics
But we need these citations in order to attract the funding resources that allow us to do what we are doing

Therefore, if you are a happy ORCA user, please consider citing a few of the papers listed below in the main body of your paper

In addition to the list printed below, the program has created the file td.bibtex that contains the list in bibtex format
You can import this file easily into all common literature databanks and citation aid programs

It goes without saying that in many instances, there are alternative algorithms to achieve similar
results as the ones you have gotten from ORCA. It is, of course, also the case that in some instances
ORCA just re-implements algorithms worked out by others. We are fully aware of that and we are also
fully appreciative of our colleagues work. Hence this citation list should not be read as indicating
that the listed papers, which are focused on our own work, are the only ones worth citing. It simply
meant to make it easier for users to cite ORCA specific papers. It is not a substitute for doing your
own literature research and citing the relevant literature in a scientifically appropriate manner.

List of essential papers. We consider these as the minimum necessary citations

  1. Neese, F.
     Software update: the ORCA program system, version 6.0
     WIRES Comput. Molec. Sci. 2025 15(1), e70019
     doi.org/10.1002/wcms.70019

List of papers to cite with high priority. The work reported in these papers was absolutely
necessary for this run to complete.
Our perspective: the developers of density functionals and basis sets usually get cited in chemistry papers
Good! But without the algorithms to do something with them, the functionals or basis sets would not do anything.
Hence, in our opinion, the algorithm design and method developments papers are equally worthy of getting cited

  1. Neese, F.; Olbrich, G.
     Efficient use of the resolution of the identity approximation in time-dependent density functional calculations with hybrid density functionals
     Chem. Phys. Lett. 2002 362 , 170-178
     doi.org/10.1016/s0009-2614(02)01053-9
  2. Neese, F.
     An improvement of the resolution of the identity approximation for the formation of the Coulomb matrix
     J. Comp. Chem. 2003 24(14), 1740-1747
     doi.org/10.1002/jcc.10318
  3. Neese, F.; Wennmohs, F.; Hansen, A.; Becker, U.
     Efficient, approximate and parallel Hartree-Fock and hybrid DFT calculations. A 'chain-of-spheres' algorithm for the Hartree-Fock exchange
     Chem. Phys. 2009 356(1-3), 98-109
     doi.org/10.1016/j.chemphys.2008.10.036
  4. Garcia-Rates, M.; Neese, F.
     Effect of the Solute Cavity on the Solvation Energy and its Derivatives within the Framework of the Gaussian Charge Scheme
     J. Comput. Chem. 2020 41 , 922-939
     doi.org/10.1002/jcc.26139
  5. Helmich-Paris, B.; de Souza, B.; Neese, F.; Izsák, R.
     An improved chain of spheres for exchange algorithm
     J. Chem. Phys. 2021 155(10), 104109
     doi.org/10.1063/5.0058766
  6. Neese, F.
     The SHARK Integral Generation and Digestion System
     J. Comp. Chem. 2022 44(3), 381
     doi.org/10.1002/jcc.26942

List of suggested additional citations. These are papers that are important in the 'surrounding' of 
of this run, or papers that preceded the highly important papers. If you like your results we are grateful for a citation.

  1. Izsak, R.; Neese, F.
     An overlap fitted chain of spheres exchange method
     J. Chem. Phys. 2011 135 , 144105
     doi.org/10.1063/1.3646921
  2. Izsak, R.; Hansen, A.; Neese, F.
     The resolution of identity and chain of spheres approximations for the LPNO-CCSD singles Fock term
     Molec. Phys. 2012 110 , 2413-2417
     doi.org/10.1080/00268976.2012.687466
  3. Neese, F.
     The ORCA program system
     WIRES Comput. Molec. Sci. 2012 2(1), 73-78
     doi.org/10.1002/wcms.81
  4. Izsak, R.; Neese, F.; Klopper, W.
     Robust fitting techniques in the chain of spheres approximation to the Fock exchange: The role of the complementary space
     J. Chem. Phys. 2013 139 , 
     doi.org/10.1063/1.4819264
  5. Neese, F.
     Software update: the ORCA program system, version 4.0
     WIRES Comput. Molec. Sci. 2018 8(1), 1-6
     doi.org/10.1002/wcms.1327
  6. Neese, F.; Wennmohs, F.; Becker, U.; Riplinger, C.
     The ORCA quantum chemistry program package
     J. Chem. Phys. 2020 152(22), 224108
     doi.org/10.1063/5.0004608
  7. Neese, F.
     Software update: The ORCA program system—Version 5.0
     WIRES Comput. Molec. Sci. 2022 12(1), e1606
     doi.org/10.1002/wcms.1606

List of optional additional citations

  1. Neese, F.
     Approximate second-order SCF convergence for spin unrestricted wavefunctions
     Chem. Phys. Lett. 2000 325(1-3), 93-98
     doi.org/10.1016/s0009-2614(00)00662-x

Timings for individual modules:

Sum of individual times          ...      376.583 sec (=   6.276 min)
Startup calculation              ...        4.854 sec (=   0.081 min)   1.3 %
SCF iterations                   ...      124.725 sec (=   2.079 min)  33.1 %
Property integrals               ...        0.411 sec (=   0.007 min)   0.1 %
Property calculations            ...        0.267 sec (=   0.004 min)   0.1 %
CIS module                       ...      246.326 sec (=   4.105 min)  65.4 %
                             ****ORCA TERMINATED NORMALLY****
TOTAL RUN TIME: 0 days 0 hours 6 minutes 17 seconds 185 msec
