
                                 *****************
                                 * O   R   C   A *
                                 *****************

                                            #,                                       
                                            ###                                      
                                            ####                                     
                                            #####                                    
                                            ######                                   
                                           ########,                                 
                                     ,,################,,,,,                         
                               ,,#################################,,                 
                          ,,##########################################,,             
                       ,#########################################, ''#####,          
                    ,#############################################,,   '####,        
                  ,##################################################,,,,####,       
                ,###########''''           ''''###############################       
              ,#####''   ,,,,##########,,,,          '''####'''          '####       
            ,##' ,,,,###########################,,,                        '##       
           ' ,,###''''                  '''############,,,                           
         ,,##''                                '''############,,,,        ,,,,,,###''
      ,#''                                            '''#######################'''  
     '                                                          ''''####''''         
             ,#######,   #######,   ,#######,      ##                                
            ,#'     '#,  ##    ##  ,#'     '#,    #''#        ,####,    ,#,          
            ##       ##  ##   ,#'  ##            #'  '#       #'       ,# #          
            ##       ##  #######   ##           ,######,      #####,      #          
            '#,     ,#'  ##    ##  '#,     ,#' ,#      #,     #,   #      #          
             '#######'   ##     ##  '#######'  #'      '#     '####' #    #          



                #########################################################
                #                        -***-                          #
                #          Department of theory and spectroscopy        #
                #                                                       #
                #                      Frank Neese                      #
                #                                                       #
                #     Directorship, Architecture, Infrastructure        #
                #                    SHARK, DRIVERS                     #
                #        Core code/Algorithms in most modules           #
                #                                                       #
                #        Max Planck Institute fuer Kohlenforschung      #
                #                Kaiser Wilhelm Platz 1                 #
                #                 D-45470 Muelheim/Ruhr                 #
                #                      Germany                          #
                #                                                       #
                #                  All rights reserved                  #
                #                        -***-                          #
                #########################################################


                         Program Version 6.1.1  -  RELEASE   -


 With contributions from (in alphabetic order):
[Max-Planck-Institut fuer Kohlenforschung]                               
  Daniel Aravena         : Magnetic Suceptibility                        
  Michael Atanasov       : Ab Initio Ligand Field Theory (pilot matlab implementation)
  Alexander A. Auer      : GIAO ZORA, VPT2 properties, NMR spectrum      
  Ute Becker             : All parallelization in ORCA, NUMFREQ, NUMCALC 
  Giovanni Bistoni       : ED, misc. LED, open-shell LED, HFLD           
  Dmytro Bykov           : pre 5.0 version of the SCF Hessian            
  Marcos Casanova-Páez   : Triplet and SCS-CIS(D). UHF-(DLPNO)-IP/EA/STEOM-CCSD. UHF-CVS-IP/STEOM-CCSD   
  Vijay G. Chilkuri      : MRCI spin determinant printing, contributions to CSF-ICE 
  Pauline Colinet        : FMM embedding                                 
  Dipayan Datta          : RHF DLPNO-CCSD density                        
  Achintya Kumar Dutta   : EOM-CC, STEOM-CC                              
  Nicolas Foglia         : Exact transition moments, OPA infrastructure, MCD improvements    
  Dmitry Ganyushin       : Spin-Orbit,Spin-Spin,Magnetic field MRCI      
  Miquel Garcia-Rates    : C-PCM and meta-GGA Hessian, CCSD/C-PCM, Gaussian charge scheme 
  Tiago L. C. Gouveia    : GS-ROHF, GS-ROCIS                             
  Yang Guo               : DLPNO-NEVPT2, F12-NEVPT2, CIM, IAO-localization        
  Andreas Hansen         : Spin unrestricted coupled pair/coupled cluster methods 
  Ingolf Harden          : AUTO-CI MPn and infrastructure                
  Benjamin Helmich-Paris : MC-RPA, TRAH-(SCF,CASSCF), AVAS, COSX integrals, SCF dyn. polar., MC-PDFT, srDFT 
  Lee Huntington         : MR-EOM, pCC                                   
  Robert Izsak           : Overlap fitted RIJCOSX, COSX-SCS-MP3, EOM     
  Riya Kayal             : Wick's Theorem for AUTO-CI, AUTO-CI UHF-CCSDT 
  Emily Kempfer          : AUTO-CI RHF CISDT and CCSDT, approximate NEVPT4
  Christian Kollmar      : KDIIS, OOCD, Brueckner-CCSD(T), CCSD density, CASPT2, CASPT2-K, improved NEVPT2 
  Axel Koslowski         : Symmetry handling                             
  Simone Kossmann        : meta-GGA functionals, TD-DFT gradient, OOMP2, (MP2 Hessian; deprecated post 5.0) 
  Lucas Lang             : DCDCAS, Hyperfine gauge corrections, ICE-SOC+SSC
  Marvin Lechner         : AUTO-CI (C++ implementation), FIC-MRCC        
  Spencer Leger          : CASSCF response                               
  Dagmar Lenk            : GEPOL surface, SMD, ORCA-2-JSON               
  Dimitrios Liakos       : Extrapolation schemes; Compound Job, Property file
  Dimitrios Manganas     : Further ROCIS development; embedding schemes. LFT, Crystal Embedding 
  Dimitrios Pantazis     : SARC Basis sets                               
  Anastasios Papadopoulos: AUTO-CI, single reference methods and gradients 
  Taras Petrenko         : pre 6.0 DFT Hessian and TD-DFT gradient,  ECA, NRVS 
  Petra Pikulova         : Analytic Raman intensities                    
  Peter Pinski           : DLPNO-MP2, DLPNO-MP2 Gradient                 
  Shashank Vittal Rao    : ES-AILFT, MagRelax                            
  Christoph Reimann      : Effective Core Potentials                     
  Marius Retegan         : Local ZFS, SOC                                
  Christoph Riplinger    : Optimizer, TS searches, QM/MM, DLPNO-CCSD(T), (RO)-DLPNO pert. Triples 
  Michael Roemelt        : Original ROCIS implementation, recursive CI coupling coefficients
  Masaaki Saitow         : Open-shell DLPNO-CCSD energy and density      
  Barbara Sandhoefer     : DKH picture change effects                    
  Yorick L. A. Schmerwitz: GMF and freeze-and-release deltaSCF, NEB S-IDPP initial path                    
  Kantharuban Sivalingam : CASSCF convergence/infrastructure, NEVPT2, NEVPT3, NEVPT4(SD), FIC-MRCI and CEPA variants
  Bernardo de Souza      : ESD, SOC TD-DFT                               
  Georgi L. Stoychev     : AutoAux, RI-MP2 NMR, DLPNO-MP2 response, X2C  
  Van Anh Tran           : RI-MP2 g-tensors                              
  Willem Van den Heuvel  : Paramagnetic NMR                              
  Zikuan Wang            : NOTCH, Electric field optimization            
  Frank Wennmohs         : Technical directorship and infrastructure     
  Hang Xu                : AUTO-CI-Response properties                   
                                                                         
[FACCTs GmbH]                                                            
  Markus Bursch, Nicolas Foglia, Miquel Garcia-Rates, Ingolf Harden, Hagen Neugebauer, Anastasios Papadopoulos, 
  Christoph Riplinger, Bernardo de Souza, Georgi L. Stoychev                                                    
                                                                 
  APM, various basis sets, CI-OPT, improved COSX, DLPNO-Multilevel,           
  DOCKER, DRACO, updates on ESD, Fragmentator, GOAT, IRC, LR-CPCM, L-BFGS, MBIS, meta-GGA TD-DFT gradient, ML-optimized integration grids, 
  MM, NACMEs, nearIR, NEB, NEB-TS, NL-DFT gradient (VV10), 2- and 3-layer-ONIOM, interface openCOSMO-RS, QMMM,   
  Crystal-QMMM, RESP, rigid body optimization, SF, symmetry and pop. for TD-DFT, various functionals, SOLVATOR                                   
                                                                         
[Other institutions]                                                     
  V. Asgeirsson          : NEB                                           
  Christoph Bannwarth    : sTDA-DFT, sTD-DFT, PBEh-3c, B97-3c, D3        
  Giovanni Bistoni       : ETS/NOCV, ADLD/ADEX, COVALED                  
  Martin Brehm           : Molecular dynamics                            
  Ronald Cardenas        : ETS/NOCV                                      
  Martina Colucci        : COVALED                                       
  Sebastian Ehlert       : rSCAN, r2SCAN, r2SCAN-3c, D4, dhf basis sets  
  Marvin Friede          : D4 for Fr, Ra, Ac-Lr                          
  Lars Goerigk           : TD-DFT with DH, B97 family of functionals     
  Stefan Grimme          : VdW corrections, initial TS optimization, DFT functionals, gCP, sTDA/sTD-DF 
  Waldemar Hujo          : DFT-NL                                        
  H. Jonsson             : NEB                                           
  Holger Kruse           : gCP                                           
  Marcel Mueller         : wB97X-3c, vDZP basis set                      
  Hagen Neugebauer       : wr2SCAN, Native XTB                           
  Gianluca Regni         : ADLD/ADEX                                     
  Tobias Risthaus        : pre 6.0 range-separated hybrid DFT and stability analysis
  Lukas Wittmann         : regularized MP2, r2SCAN double-hybrids, wr2SCAN        
                                                                         
We gratefully acknowledge several colleagues who have allowed us to      
interface, adapt or use parts of their codes:                            
  Ed Valeev, F. Pavosevic, A. Kumar             : LibInt (2-el integral package), F12 methods 
  Garnet Chan, S. Sharma, J. Yang, R. Olivares  : DMRG                   
  Ulf Ekstrom                                   : XCFun DFT Library      
  Mihaly Kallay                                 : mrcc  (arbitrary order and MRCC methods)
  Frank Weinhold                                : gennbo (NPA and NBO analysis)           
  Simon Mueller                                 : openCOSMO-RS                            
  Christopher J. Cramer and Donald G. Truhlar   : smd solvation model                     
  S Lehtola, MJT Oliveira, MAL Marques          : LibXC Library                           
  Liviu Ungur et al                             : ANISO software                          


 Your calculation uses the libint2 library for the computation of 2-el integrals
 For citations please refer to: http://libint.valeyev.net

 Your ORCA version has been built with support for libXC version: 7.0.0
 For citations please refer to: https://libxc.gitlab.io

 This ORCA versions uses:
   CBLAS   interface :  Fast vector & matrix operations
   LAPACKE interface :  Fast linear algebra routines
   Shared memory     :  Shared parallel matrices


  ***********************************
  * Starting time: Tue Jul 21 18:55:29 2026
  * Host name:     DESKTOP-19Q153E
  * Process ID:    9988
  * Working dir.:  C:\Users\ysm04\Documents\etc\uv_vis\calculations\02_tddft_orca\enolA\enolA_c004\b3lyp_631+gd\none\dftopt22
  ***********************************

NOTE: MaxCore=2500 MB was set to SCF,MP2,MDCI,CIPSI,MRCI,RASCI and CIS
      => If you want to overwrite this, your respective input block should be placed after the MaxCore statement
================================================================================

----- Orbital basis set information -----
Your calculation utilizes the basis: 6-31+G(d)
   H-He, Li-Ne : W. J. Hehre, R. Ditchfield and J.A. Pople, J. Chem. Phys. 56, 2257 (1972).
                 Note: He and Ne are unpublished basis sets taken from the Gaussian program.
                 Note: Li and B from J. D. Dill and J. A. Pople, J. Chem. Phys. 62, 2921 (1975).
   Na - Ar     : M. M. Francl, W. J. Pietro, W. J. Hehre, J. S. Binkley, M. S. Gordon, 
                 D. J. DeFrees and J. A. Pople, J. Chem. Phys. 77, 3654 (1982).
   K - Zn      : V. A. Rassolov, J. A. Pople, M. A. Ratner, and T. L. Windus, J. Chem. Phys. 109, 1223 (1998).
   Additional Pol./Diff. from the 6-311G equivalent.

----- AuxJ basis set information -----
Your calculation utilizes the auxiliary basis: def2/J
   H-Rn: F. Weigend, Phys. Chem. Chem. Phys. 8, 1057 (2006).
   Fr-Lr: K. Eichkorn, F. Weigend, O. Treutler, R. Ahlrichs; Theor. Chem. Acc. 97, 119 (1997).

================================================================================
                                        WARNINGS
                       Please study these warnings very carefully!
================================================================================


WARNING: CIS/ROCIS methods need fully converged wavefunctions
  ===> : Setting SCFConvForced true
         You can overwrite this default with %scf ConvForced false 


================================================================================
                                       INPUT FILE
================================================================================
NAME = td.inp
|  1> # enolA / enolA_c004 / b3lyp_631+gd / solvent=none
|  2> ! B3LYP 6-31+G(d) RIJCOSX def2/J TightSCF
|  3> %pal nprocs 4 end
|  4> %maxcore 2500
|  5> %scf
|  6>   MaxIter 300
|  7> end
|  8> %tddft
|  9>   nroots 22
| 10>   tda    true
| 11>   maxdim 5
| 12> end
| 13> * xyz 0 1
| 14> C     -5.6759666382    -0.2631195101    -1.7477584265
| 15> C     -5.2058940842     0.4707883851    -0.4824216383
| 16> C     -6.2453497241     0.2450709477     0.6198769180
| 17> C     -5.1230497144     1.9801146630    -0.7574134169
| 18> C     -3.8274711526    -0.0447103113    -0.1025960874
| 19> C     -3.5716416959    -0.7205486808     1.0862990567
| 20> C     -2.3043927896    -1.1771159600     1.3939205965
| 21> C     -1.2342727387    -0.9589866731     0.5281169344
| 22> C     -1.4843979318    -0.2939705761    -0.6723579700
| 23> C     -2.7556924931     0.1450724701    -0.9759331602
| 24> C      0.1015556332    -1.4385020193     0.8957243608
| 25> O      0.1224946556    -2.4676661999     1.7335727615
| 26> C      1.2523925138    -0.8522522199     0.4380504636
| 27> C      2.5448126795    -1.3159300031     0.8524237388
| 28> O      2.6775504345    -2.2786443161     1.6397734071
| 29> C      3.7450923456    -0.6038875023     0.3658147620
| 30> C      3.7763973582     0.1454219254    -0.8131058002
| 31> C      4.9293299135     0.7866037370    -1.2026004693
| 32> C      6.0894630654     0.7113938215    -0.4238315358
| 33> O      7.1599706367     1.3993252683    -0.8904428631
| 34> C      8.3615560715     1.3879164482    -0.1435268422
| 35> C      6.0726554447    -0.0477765077     0.7443125680
| 36> C      4.9145843730    -0.6985097970     1.1188467649
| 37> H     -5.7266678410    -1.3345359110    -1.5647840134
| 38> H     -6.6654535461     0.0859631179    -2.0341700577
| 39> H     -4.9982566615    -0.0908154432    -2.5791962774
| 40> H     -6.3828452973    -0.8148488633     0.8197043904
| 41> H     -5.9548840317     0.7487060314     1.5389951016
| 42> H     -7.2027820026     0.6519040198     0.3013723978
| 43> H     -4.4680249461     2.1979684096    -1.5959020385
| 44> H     -6.1117602000     2.3692528806    -0.9898579869
| 45> H     -4.7436628801     2.5021108732     0.1186741729
| 46> H     -4.3622903801    -0.9033267327     1.7948787057
| 47> H     -2.1275805450    -1.6996051588     2.3221390231
| 48> H     -0.6866709405    -0.1442008550    -1.3832036945
| 49> H     -2.9119298415     0.6451659432    -1.9193504916
| 50> H      1.0844887666    -2.6734996246     1.9239479756
| 51> H      1.1879439863     0.0134815102    -0.1933097294
| 52> H      2.9058405362     0.2059590956    -1.4465607116
| 53> H      4.9660051588     1.3615964898    -2.1145611343
| 54> H      8.2081526118     1.7968781754     0.8587958068
| 55> H      9.0497589107     2.0245761866    -0.6959894076
| 56> H      8.7742911695     0.3779088246    -0.0715466409
| 57> H      6.9504185694    -0.1386964631     1.3634351893
| 58> H      4.8961832217    -1.2920298958     2.0217387279
| 59> *
| 60> 
| 61>                          ****END OF INPUT****
================================================================================

                       ****************************
                       * Single Point Calculation *
                       ****************************

---------------------------------
CARTESIAN COORDINATES (ANGSTROEM)
---------------------------------
  C     -5.675967   -0.263120   -1.747758
  C     -5.205894    0.470788   -0.482422
  C     -6.245350    0.245071    0.619877
  C     -5.123050    1.980115   -0.757413
  C     -3.827471   -0.044710   -0.102596
  C     -3.571642   -0.720549    1.086299
  C     -2.304393   -1.177116    1.393921
  C     -1.234273   -0.958987    0.528117
  C     -1.484398   -0.293971   -0.672358
  C     -2.755692    0.145072   -0.975933
  C      0.101556   -1.438502    0.895724
  O      0.122495   -2.467666    1.733573
  C      1.252393   -0.852252    0.438050
  C      2.544813   -1.315930    0.852424
  O      2.677550   -2.278644    1.639773
  C      3.745092   -0.603888    0.365815
  C      3.776397    0.145422   -0.813106
  C      4.929330    0.786604   -1.202600
  C      6.089463    0.711394   -0.423832
  O      7.159971    1.399325   -0.890443
  C      8.361556    1.387916   -0.143527
  C      6.072655   -0.047777    0.744313
  C      4.914584   -0.698510    1.118847
  H     -5.726668   -1.334536   -1.564784
  H     -6.665454    0.085963   -2.034170
  H     -4.998257   -0.090815   -2.579196
  H     -6.382845   -0.814849    0.819704
  H     -5.954884    0.748706    1.538995
  H     -7.202782    0.651904    0.301372
  H     -4.468025    2.197968   -1.595902
  H     -6.111760    2.369253   -0.989858
  H     -4.743663    2.502111    0.118674
  H     -4.362290   -0.903327    1.794879
  H     -2.127581   -1.699605    2.322139
  H     -0.686671   -0.144201   -1.383204
  H     -2.911930    0.645166   -1.919350
  H      1.084489   -2.673500    1.923948
  H      1.187944    0.013482   -0.193310
  H      2.905841    0.205959   -1.446561
  H      4.966005    1.361596   -2.114561
  H      8.208153    1.796878    0.858796
  H      9.049759    2.024576   -0.695989
  H      8.774291    0.377909   -0.071547
  H      6.950419   -0.138696    1.363435
  H      4.896183   -1.292030    2.021739

----------------------------
CARTESIAN COORDINATES (A.U.)
----------------------------
  NO LB      ZA    FRAG     MASS         X           Y           Z
   0 C     6.0000    0    12.011  -10.726022   -0.497224   -3.302785
   1 C     6.0000    0    12.011   -9.837714    0.889661   -0.911645
   2 C     6.0000    0    12.011  -11.802001    0.463117    1.171398
   3 C     6.0000    0    12.011   -9.681161    3.741874   -1.431304
   4 C     6.0000    0    12.011   -7.232872   -0.084490   -0.193879
   5 C     6.0000    0    12.011   -6.749425   -1.361640    2.052808
   6 C     6.0000    0    12.011   -4.354671   -2.224427    2.634128
   7 C     6.0000    0    12.011   -2.332437   -1.812222    0.997996
   8 C     6.0000    0    12.011   -2.805106   -0.555524   -1.270572
   9 C     6.0000    0    12.011   -5.207504    0.274147   -1.844246
  10 C     6.0000    0    12.011    0.191912   -2.718375    1.692674
  11 O     8.0000    0    15.999    0.231481   -4.663213    3.275978
  12 C     6.0000    0    12.011    2.366679   -1.610523    0.827795
  13 C     6.0000    0    12.011    4.808999   -2.486747    1.610847
  14 O     8.0000    0    15.999    5.059837   -4.306014    3.098723
  15 C     6.0000    0    12.011    7.077199   -1.141182    0.691290
  16 C     6.0000    0    12.011    7.136357    0.274808   -1.536547
  17 C     6.0000    0    12.011    9.315084    1.486466   -2.272586
  18 C     6.0000    0    12.011   11.507417    1.344339   -0.800926
  19 O     8.0000    0    15.999   13.530384    2.644342   -1.682693
  20 C     6.0000    0    12.011   15.801051    2.622782   -0.271226
  21 C     6.0000    0    12.011   11.475656   -0.090285    1.406547
  22 C     6.0000    0    12.011    9.287219   -1.319992    2.114314
  23 H     1.0000    0     1.008  -10.821834   -2.521907   -2.957013
  24 H     1.0000    0     1.008  -12.595882    0.162447   -3.844024
  25 H     1.0000    0     1.008   -9.445336   -0.171616   -4.873975
  26 H     1.0000    0     1.008  -12.061830   -1.539841    1.549017
  27 H     1.0000    0     1.008  -11.253100    1.414849    2.908279
  28 H     1.0000    0     1.008  -13.611285    1.231920    0.569511
  29 H     1.0000    0     1.008   -8.443344    4.153558   -3.015818
  30 H     1.0000    0     1.008  -11.549553    4.477239   -1.870561
  31 H     1.0000    0     1.008   -8.964224    4.728304    0.224262
  32 H     1.0000    0     1.008   -8.243534   -1.707040    3.391829
  33 H     1.0000    0     1.008   -4.020545   -3.211788    4.388207
  34 H     1.0000    0     1.008   -1.297620   -0.272500   -2.613876
  35 H     1.0000    0     1.008   -5.502750    1.219187   -3.627047
  36 H     1.0000    0     1.008    2.049387   -5.052182    3.635735
  37 H     1.0000    0     1.008    2.244889    0.025476   -0.365302
  38 H     1.0000    0     1.008    5.491243    0.389206   -2.733604
  39 H     1.0000    0     1.008    9.384390    2.573044   -3.995941
  40 H     1.0000    0     1.008   15.511161    3.395608    1.622889
  41 H     1.0000    0     1.008   17.101566    3.825895   -1.315229
  42 H     1.0000    0     1.008   16.581007    0.714144   -0.135204
  43 H     1.0000    0     1.008   13.134388   -0.262098    2.576519
  44 H     1.0000    0     1.008    9.252445   -2.441583    3.820533

--------------------------------
INTERNAL COORDINATES (ANGSTROEM)
--------------------------------
 C      0   0   0     0.000000000000     0.00000000     0.00000000
 C      1   0   0     1.536445961378     0.00000000     0.00000000
 C      2   1   0     1.531821953129   108.33854113     0.00000000
 C      2   1   3     1.536407980019   109.77587504   242.19986699
 C      2   1   3     1.519886881800   108.73974736   122.78114931
 C      5   2   1     1.391286410581   123.02957106   243.61294982
 C      6   5   2     1.381667283648   121.29393380   179.82237052
 C      7   6   5     1.393683353724   120.94507064     0.86004095
 C      8   7   6     1.394972765894   118.13519100   358.53629614
 C      9   8   7     1.378806206148   120.43744590     0.77079297
 C      8   7   6     1.466119922230   119.51456517   179.03017916
 O     11   8   7     1.327255550316   115.23057952    25.35050996
 C     11   8   7     1.370248061201   122.78971450   206.87625324
 C     13  11   8     1.434242720930   121.46704675   177.81851537
 O     14  13  11     1.250742843365   121.75901879     0.51171867
 C     14  13  11     1.477993266595   118.74596414   182.52016186
 C     16  14  13     1.397246690542   123.66556670   335.41286738
 C     17  16  14     1.375526695435   120.50885767   179.76178768
 C     18  17  16     1.399302152257   120.81515018   359.49670487
 O     19  18  17     1.355345810659   115.84622167   181.07395050
 C     20  19  18     1.414857328700   119.00878875   178.94221937
 C     19  18  17     1.393263339105   119.07157285     1.32520737
 C     22  19  18     1.380166035504   119.64023079   359.35874573
 H      1   2   3     1.088109990733   110.24940688   297.16711026
 H      1   2   3     1.087646378454   109.99234066    56.82420963
 H      1   2   3     1.086401585004   111.32515572   176.95383054
 H      3   2   1     1.087320586178   111.20432649    58.16670799
 H      3   2   1     1.087564642409   111.01887031   180.04528013
 H      3   2   1     1.087949836093   109.35372922   299.13235659
 H      4   2   1     1.086085112018   111.57698145   303.25742457
 H      4   2   1     1.087661461510   109.91977656    63.22968669
 H      4   2   1     1.088091852053   110.24099709   182.79579721
 H      6   5   2     1.077319951110   120.63118029   359.88581418
 H      7   6   5     1.079743941952   120.09908326   180.01128023
 H      9   8   7     1.078935107431   120.03858290   182.48396886
 H     10   9   8     1.079138476776   118.26404232   180.71064365
 H     12  11   8     1.002019356333   107.11940238   181.82103901
 H     13  11   8     1.073435697857   119.41191177     1.90284053
 H     17  16  14     1.078331606735   120.50863528   357.93641990
 H     18  17  16     1.078718681537   121.08770618   179.54933708
 H     21  20  19     1.093358590976   111.20968877   300.35501258
 H     21  20  19     1.088197434545   105.32921723   181.71411695
 H     21  20  19     1.093456359545   111.26988082    63.05583334
 H     22  19  18     1.077983006164   121.17605061   179.26463203
 H     23  22  19     1.080656562881   119.99797292   179.76207401

---------------------------
INTERNAL COORDINATES (A.U.)
---------------------------
 C      0   0   0     0.000000000000     0.00000000     0.00000000
 C      1   0   0     2.903462086573     0.00000000     0.00000000
 C      2   1   0     2.894723977342   108.33854113     0.00000000
 C      2   1   3     2.903390312206   109.77587504   242.19986699
 C      2   1   3     2.872169961141   108.73974736   122.78114931
 C      5   2   1     2.629150289845   123.02957106   243.61294982
 C      6   5   2     2.610972774294   121.29393380   179.82237052
 C      7   6   5     2.633679855943   120.94507064     0.86004095
 C      8   7   6     2.636116491819   118.13519100   358.53629614
 C      9   8   7     2.605566121371   120.43744590     0.77079297
 C      8   7   6     2.770565132500   119.51456517   179.03017916
 O     11   8   7     2.508149499824   115.23057952    25.35050996
 C     11   8   7     2.589393571206   122.78971450   206.87625324
 C     13  11   8     2.710325952128   121.46704675   177.81851537
 O     14  13  11     2.363561437922   121.75901879     0.51171867
 C     14  13  11     2.793002501645   118.74596414   182.52016186
 C     16  14  13     2.640413586653   123.66556670   335.41286738
 C     17  16  14     2.599368744270   120.50885767   179.76178768
 C     18  17  16     2.644297846373   120.81515018   359.49670487
 O     19  18  17     2.561232398904   115.84622167   181.07395050
 C     20  19  18     2.673692869815   119.00878875   178.94221937
 C     19  18  17     2.632886143341   119.07157285     1.32520737
 C     22  19  18     2.608135826443   119.64023079   359.35874573
 H      1   2   3     2.056229886068   110.24940688   297.16711026
 H      1   2   3     2.055353785829   109.99234066    56.82420963
 H      1   2   3     2.053001467115   111.32515572   176.95383054
 H      3   2   1     2.054738127650   111.20432649    58.16670799
 H      3   2   1     2.055199327090   111.01887031   180.04528013
 H      3   2   1     2.055927237661   109.35372922   299.13235659
 H      4   2   1     2.052403419843   111.57698145   303.25742457
 H      4   2   1     2.055382288675   109.91977656    63.22968669
 H      4   2   1     2.056195608932   110.24099709   182.79579721
 H      6   5   2     2.035839666208   120.63118029   359.88581418
 H      7   6   5     2.040420345051   120.09908326   180.01128023
 H      9   8   7     2.038891869317   120.03858290   182.48396886
 H     10   9   8     2.039276181683   118.26404232   180.71064365
 H     12  11   8     1.893542164357   107.11940238   181.82103901
 H     13  11   8     2.028499491325   119.41191177     1.90284053
 H     17  16  14     2.037751418280   120.50863528   357.93641990
 H     18  17  16     2.038482883650   121.08770618   179.54933708
 H     21  20  19     2.066148303114   111.20968877   300.35501258
 H     21  20  19     2.056395130926   105.32921723   181.71411695
 H     21  20  19     2.066333058935   111.26988082    63.05583334
 H     22  19  18     2.037092658671   121.17605061   179.26463203
 H     23  22  19     2.042144948671   119.99797292   179.76207401

---------------------
BASIS SET INFORMATION
---------------------
There are 3 groups of distinct atoms

 Group   1 Type C   : 11s5p1d contracted to 4s3p1d pattern {6311/311/1}
 Group   2 Type O   : 11s5p1d contracted to 4s3p1d pattern {6311/311/1}
 Group   3 Type H   : 4s contracted to 2s pattern {31}

Atom   0C    basis set group =>   1
Atom   1C    basis set group =>   1
Atom   2C    basis set group =>   1
Atom   3C    basis set group =>   1
Atom   4C    basis set group =>   1
Atom   5C    basis set group =>   1
Atom   6C    basis set group =>   1
Atom   7C    basis set group =>   1
Atom   8C    basis set group =>   1
Atom   9C    basis set group =>   1
Atom  10C    basis set group =>   1
Atom  11O    basis set group =>   2
Atom  12C    basis set group =>   1
Atom  13C    basis set group =>   1
Atom  14O    basis set group =>   2
Atom  15C    basis set group =>   1
Atom  16C    basis set group =>   1
Atom  17C    basis set group =>   1
Atom  18C    basis set group =>   1
Atom  19O    basis set group =>   2
Atom  20C    basis set group =>   1
Atom  21C    basis set group =>   1
Atom  22C    basis set group =>   1
Atom  23H    basis set group =>   3
Atom  24H    basis set group =>   3
Atom  25H    basis set group =>   3
Atom  26H    basis set group =>   3
Atom  27H    basis set group =>   3
Atom  28H    basis set group =>   3
Atom  29H    basis set group =>   3
Atom  30H    basis set group =>   3
Atom  31H    basis set group =>   3
Atom  32H    basis set group =>   3
Atom  33H    basis set group =>   3
Atom  34H    basis set group =>   3
Atom  35H    basis set group =>   3
Atom  36H    basis set group =>   3
Atom  37H    basis set group =>   3
Atom  38H    basis set group =>   3
Atom  39H    basis set group =>   3
Atom  40H    basis set group =>   3
Atom  41H    basis set group =>   3
Atom  42H    basis set group =>   3
Atom  43H    basis set group =>   3
Atom  44H    basis set group =>   3
---------------------------------
AUXILIARY/J BASIS SET INFORMATION
---------------------------------
There are 3 groups of distinct atoms

 Group   1 Type C   : 12s5p4d2f1g contracted to 6s4p3d1f1g pattern {711111/2111/211/2/1}
 Group   2 Type O   : 12s5p4d2f1g contracted to 6s4p3d1f1g pattern {711111/2111/211/2/1}
 Group   3 Type H   : 5s2p1d contracted to 3s1p1d pattern {311/2/1}

Atom   0C    basis set group =>   1
Atom   1C    basis set group =>   1
Atom   2C    basis set group =>   1
Atom   3C    basis set group =>   1
Atom   4C    basis set group =>   1
Atom   5C    basis set group =>   1
Atom   6C    basis set group =>   1
Atom   7C    basis set group =>   1
Atom   8C    basis set group =>   1
Atom   9C    basis set group =>   1
Atom  10C    basis set group =>   1
Atom  11O    basis set group =>   2
Atom  12C    basis set group =>   1
Atom  13C    basis set group =>   1
Atom  14O    basis set group =>   2
Atom  15C    basis set group =>   1
Atom  16C    basis set group =>   1
Atom  17C    basis set group =>   1
Atom  18C    basis set group =>   1
Atom  19O    basis set group =>   2
Atom  20C    basis set group =>   1
Atom  21C    basis set group =>   1
Atom  22C    basis set group =>   1
Atom  23H    basis set group =>   3
Atom  24H    basis set group =>   3
Atom  25H    basis set group =>   3
Atom  26H    basis set group =>   3
Atom  27H    basis set group =>   3
Atom  28H    basis set group =>   3
Atom  29H    basis set group =>   3
Atom  30H    basis set group =>   3
Atom  31H    basis set group =>   3
Atom  32H    basis set group =>   3
Atom  33H    basis set group =>   3
Atom  34H    basis set group =>   3
Atom  35H    basis set group =>   3
Atom  36H    basis set group =>   3
Atom  37H    basis set group =>   3
Atom  38H    basis set group =>   3
Atom  39H    basis set group =>   3
Atom  40H    basis set group =>   3
Atom  41H    basis set group =>   3
Atom  42H    basis set group =>   3
Atom  43H    basis set group =>   3
Atom  44H    basis set group =>   3


           ************************************************************
           *        Program running with 4 parallel MPI-processes     *
           *              working on a common directory               *
           ************************************************************
------------------------------------------------------------------------------
                             ORCA STARTUP CALCULATIONS
                           -- RI-GTO INTEGRALS CHOSEN --
------------------------------------------------------------------------------
------------------------------------------------------------------------------
                   ___                                                        
                  /   \      - P O W E R E D   B Y -                         
                 /     \                                                     
                 |  |  |   _    _      __       _____    __    __             
                 |  |  |  | |  | |    /  \     |  _  \  |  |  /  |          
                  \  \/   | |  | |   /    \    | | | |  |  | /  /          
                 / \  \   | |__| |  /  /\  \   | |_| |  |  |/  /          
                |  |  |   |  __  | /  /__\  \  |    /   |      \           
                |  |  |   | |  | | |   __   |  |    \   |  |\   \          
                \     /   | |  | | |  |  |  |  | |\  \  |  | \   \       
                 \___/    |_|  |_| |__|  |__|  |_| \__\ |__|  \__/        
                                                                              
                      - O R C A' S   B I G   F R I E N D -                    
                                      &                                       
                       - I N T E G R A L  F E E D E R -                       
                                                                              
 v1 FN, 2020, v2 2021, v3 2022-2024                                           
------------------------------------------------------------------------------


----------------------
SHARK INTEGRAL PACKAGE
----------------------

Number of atoms                             ...     45
Number of basis functions                   ...    458
Number of shells                            ...    228
Maximum angular momentum                    ...      2
Integral batch strategy                     ... SHARK/LIBINT Hybrid
RI-J (if used) integral strategy            ... SPLIT-RIJ (Revised 2003 algorithm where possible)
Printlevel                                  ...      1
Contraction scheme used                     ... SEGMENTED contraction
Prescreening option                         ... SCHWARTZ
   Thresh                                   ... 2.500e-11
   Tcut                                     ... 2.500e-12
   Tpresel                                  ... 2.500e-12 
Coulomb Range Separation                    ... NOT USED
Exchange Range Separation                   ... NOT USED
Multipole approximations                    ... NOT USED
Finite Nucleus Model                        ... NOT USED
CABS basis                                  ... NOT available
Auxiliary Coulomb fitting basis             ... AVAILABLE
   # of basis functions in Aux-J            ...   1369
   # of shells in Aux-J                     ...    455
   Maximum angular momentum in Aux-J        ...      4
Auxiliary J/K fitting basis                 ... NOT available
Auxiliary Correlation fitting basis         ... NOT available
Auxiliary 'external' fitting basis          ... NOT available

Checking pre-screening integrals            ... done (  0.0 sec) Dimension = 228
   => SHARK Basis and OBASIS are compatible. Storing Pre-screening
Shell pair information
Shell pair cut-off parameter TPreSel        ...   2.5e-12
Total number of shell pairs                 ...     26106
Shell pairs after pre-screening             ...     18846
Total number of primitive shell pairs       ...    115509
Primitive shell pairs kept                  ...     51394
          la=0 lb=0:   6263 shell pairs
          la=1 lb=0:   7335 shell pairs
          la=1 lb=1:   2095 shell pairs
          la=2 lb=0:   1835 shell pairs
          la=2 lb=1:   1181 shell pairs
          la=2 lb=2:    137 shell pairs

Checking whether 4 symmetric matrices of dimension 458 fit in memory
:Max Core in MB      =   2500.00
 MB in use           =     22.52
 MB left             =   2477.48
 MB needed           =      3.21
 Data fit in memory  = YES
Calculating RI/J V-Matrix + Cholesky decomp.... done (  0.1 sec)
Calculating Nuclear repulsion               ... done (  0.0 sec) ENN=   1742.880480141763 Eh

Diagonalization of the overlap matrix:
Smallest eigenvalue                        ... 1.808e-07
Time for diagonalization                   ...    0.031 sec
Threshold for overlap eigenvalues          ... 1.000e-07
Number of eigenvalues below threshold      ... 0

IMPORTANT:
Smallest eigenvalue of S below the DiffSThresh (1.000e-06) while
Thresh>1e-12 and/or TCut>1e-13! In order to avoid SCF convergence issues,
Thresh will be set to at least 1e-12 and TCut to at least 1e-13.
This can be turned off by adding %SCF DiffSThresh -1 END to the input.

Time for construction of square roots      ...    0.021 sec
Total time needed                          ...    0.054 sec

-------------------
DFT GRID GENERATION
-------------------

General Integration Accuracy     IntAcc      ... 4.388
Radial Grid Type                 RadialGrid  ... OptM3 with GC (2021)
Angular Grid (max. ang.)         AngularGrid ... 4 (Lebedev-302)
Angular grid pruning method      GridPruning ... 4 (adaptive)
Weight generation scheme         WeightScheme... mBecke (2022)
Basis function cutoff            BFCut       ... 1.0000e-11
Integration weight cutoff        WCut        ... 1.0000e-14
Partially contracted basis set               ... off
Rotationally invariant grid construction     ... off
Angular grids for H and He will be reduced by one unit
Diffuse basis detected: some atoms will have their outermost
                        angular grid increased by 1.

Total number of grid points                  ...   213044
Total number of batches                      ...     3348
Average number of points per batch           ...       63
Average number of grid points per atom       ...     4734

--------------------
COSX GRID GENERATION
--------------------

GRIDX 1
-------
General Integration Accuracy     IntAcc      ... 3.816
Radial Grid Type                 RadialGrid  ... OptM3 with GC (2021)
Angular Grid (max. ang.)         AngularGrid ... 1 (Lebedev-50)
Angular grid pruning method      GridPruning ... 4 (adaptive)
Weight generation scheme         WeightScheme... mBecke (2022)
Basis function cutoff            BFCut       ... 1.0000e-11
Integration weight cutoff        WCut        ... 1.0000e-14
Partially contracted basis set               ... on
Rotationally invariant grid construction     ... off
Angular grids for H and He will be reduced by one unit
Diffuse basis detected: some atoms will have their outermost
                        angular grid increased by 1.

Total number of grid points                  ...    27120
Total number of batches                      ...      238
Average number of points per batch           ...      113
Average number of grid points per atom       ...      603
UseSFitting                                  ... on

GRIDX 2
-------
General Integration Accuracy     IntAcc      ... 4.020
Radial Grid Type                 RadialGrid  ... OptM3 with GC (2021)
Angular Grid (max. ang.)         AngularGrid ... 2 (Lebedev-110)
Angular grid pruning method      GridPruning ... 4 (adaptive)
Weight generation scheme         WeightScheme... mBecke (2022)
Basis function cutoff            BFCut       ... 1.0000e-11
Integration weight cutoff        WCut        ... 1.0000e-14
Partially contracted basis set               ... on
Rotationally invariant grid construction     ... off
Angular grids for H and He will be reduced by one unit
Diffuse basis detected: some atoms will have their outermost
                        angular grid increased by 1.

Total number of grid points                  ...    62601
Total number of batches                      ...      513
Average number of points per batch           ...      122
Average number of grid points per atom       ...     1391
UseSFitting                                  ... on

GRIDX 3
-------
General Integration Accuracy     IntAcc      ... 4.338
Radial Grid Type                 RadialGrid  ... OptM3 with GC (2021)
Angular Grid (max. ang.)         AngularGrid ... 3 (Lebedev-194)
Angular grid pruning method      GridPruning ... 4 (adaptive)
Weight generation scheme         WeightScheme... mBecke (2022)
Basis function cutoff            BFCut       ... 1.0000e-11
Integration weight cutoff        WCut        ... 1.0000e-14
Partially contracted basis set               ... on
Rotationally invariant grid construction     ... off
Angular grids for H and He will be reduced by one unit
Diffuse basis detected: some atoms will have their outermost
                        angular grid increased by 1.

Total number of grid points                  ...   135066
Total number of batches                      ...     1079
Average number of points per batch           ...      125
Average number of grid points per atom       ...     3001
UseSFitting                                  ... on
Grids setup in   6.0 sec
Initializing property integral containers    ... done (  0.1 sec)

SHARK setup successfully completed in   6.7 seconds

Maximum memory used throughout the entire STARTUP-calculation: 66.8 MB


           ************************************************************
           *        Program running with 4 parallel MPI-processes     *
           *              working on a common directory               *
           ************************************************************
-------------------------------------------------------------------------------
                                 ORCA GUESS
                   Start orbitals & Density for SCF / CASSCF
-------------------------------------------------------------------------------

------------
SCF SETTINGS
------------
Hamiltonian:
 Density Functional     Method          .... DFT(GTOs)
 Exchange Functional    Exchange        .... B88
   X-Alpha parameter    XAlpha          ....  0.666667
   Becke's b parameter  XBeta           ....  0.004200
 Correlation Functional Correlation     .... LYP
 LDA part of GGA corr.  LDAOpt          .... VWN-5
 Gradients option       PostSCFGGA      .... off
 Hybrid DFT is turned on
   Fraction HF Exchange ScalHFX         ....  0.200000
   Scaling of DF-GGA-X  ScalDFX         ....  0.720000
   Scaling of DF-GGA-C  ScalDFC         ....  0.810000
   Scaling of DF-LDA-C  ScalLDAC        ....  1.000000
   Perturbative correction              ....  0.000000
   NL short-range parameter             ....  4.800000
 RI-approximation to the Coulomb term is turned on
   Number of AuxJ basis functions       .... 1369
   RIJ-COSX (HFX calculated with COS-X)).... on


General Settings:
 Integral files         IntName         .... td
 Hartree-Fock type      HFTyp           .... RHF
 Total Charge           Charge          ....    0
 Multiplicity           Mult            ....    1
 Number of Electrons    NEL             ....  166
 Basis Dimension        Dim             ....  458
 Nuclear Repulsion      ENuc            ....   1742.8804801418 Eh

Convergence Acceleration:
 AO-DIIS                CNVDIIS         .... on
   Start iteration      DIISMaxIt       ....    12
   Startup error        DIISStart       ....  0.200000
   # of expansion vecs  DIISMaxEq       ....     5
   Bias factor          DIISBfac        ....   1.050
   Max. coefficient     DIISMaxC        ....  10.000
 MO-DIIS                CNVKDIIS        .... off
 Trust-Rad. Augm. Hess. CNVTRAH         .... auto
   Auto Start mean grad. ratio tolernc. ....  1.125000
   Auto Start start iteration           ....    50
   Auto Start num. interpolation iter.  ....    10
   Max. Number of Micro iterations      ....    24
   Max. Number of Macro iterations      .... Maxiter - #DIIS iter
   Number of Davidson start vectors     ....     2
   Converg. threshold    (grad. norm)   ....   1.000e-05
   Grad. Scal. Fac. for Micro threshold ....   0.100
   Minimum threshold for Micro iter.    ....   1.000e-02
   NR start threshold (gradient norm)   ....   1.000e-04
   Initial trust radius                 ....   0.400
   Minimum AH scaling param. (alpha)    ....   1.000
   Maximum AH scaling param. (alpha)    .... 1000.000
   Quad. conv. algorithm                .... NR
   White noise on init. David. guess    .... on
   Maximum white noise                  ....   0.010
   Pseudo random numbers                .... off
   Inactive MOs                         .... canonical
   Orbital update algorithm             .... Taylor
   Preconditioner                       .... Diag
   Full preconditioner red. dimension   ....   250
 SOSCF                 CNVSOSCF           .... on
   Start iteration     SOSCFMaxIt         ....   150
   Startup grad/error  SOSCFStart         ....  0.003300
   Hessian update      SOSCFHessUp        .... L-BFGS
   Autom. constraints  SOSCFAutoConstrain .... off
 Level Shifting         CNVShift        .... on
   Level shift para.    LevelShift      ....    0.2500
   Turn off err/grad.   ShiftErr        ....    0.0010
 Zerner damping         CNVZerner       .... off
 Static damping         CNVDamp         .... on
   Fraction old density DampFac         ....    0.7000
   Max. Damping (<1)    DampMax         ....    0.9800
   Min. Damping (>=0)   DampMin         ....    0.0000
   Turn off err/grad.   DampErr         ....    0.1000

SCF Procedure:
 Maximum # iterations   MaxIter         ....   300
 SCF integral mode      SCFMode         .... Direct
   Integral package                     .... SHARK and LIBINT hybrid scheme
 Reset frequency        DirectResetFreq ....    20
 Integral Threshold     Thresh          ....  1.000e-12 Eh
 Primitive CutOff       TCut            ....  1.000e-13 Eh

Convergence Tolerance:
 Convergence Check Mode ConvCheckMode   .... Total+1el-Energy
 Convergence forced     ConvForced      .... 1
 Energy Change          TolE            ....  1.000e-08 Eh
 1-El. energy change                    ....  1.000e-05 Eh
 Orbital Gradient       TolG            ....  1.000e-05
 Orbital Rotation angle TolX            ....  1.000e-05
 DIIS Error             TolErr          ....  5.000e-07

------------------------------
INITIAL GUESS: MODEL POTENTIAL
------------------------------
Loading Hartree-Fock densities                     ... done
Calculating cut-offs                               ... done
Initializing the effective Hamiltonian             ... done
Setting up the integral package (SHARK)            ... done
Starting the Coulomb interaction                   ... done (   0.9 sec)
Making the grid                                    ... done (   0.9 sec)
Mapping shells                                     ... done
Starting the XC term evaluation                    ... done (   1.0 sec)
  promolecular density results
     # of electrons  =    165.992202007
     EX              =   -134.073002657
     EC              =     -5.606966576
     EX+EC           =   -139.679969234
Transforming the Hamiltonian                       ... done (   0.0 sec)
Diagonalizing the Hamiltonian                      ... done (   0.0 sec)
Back transforming the eigenvectors                 ... done (   0.0 sec)
Now organizing SCF variables                       ... done
                      ------------------
                      INITIAL GUESS DONE (   3.1 sec)
                      ------------------
             **** ENERGY FILE WAS UPDATED (td.en.tmp) ****
Finished Guess after   3.4 sec
Maximum memory used throughout the entire GUESS-calculation: 30.1 MB


           ************************************************************
           *        Program running with 4 parallel MPI-processes     *
           *              working on a common directory               *
           ************************************************************

-------------------------------------------------------------------------------------------
                                      ORCA LEAN-SCF
                              memory conserving SCF solver
-------------------------------------------------------------------------------------------

----------------------------------------D-I-I-S--------------------------------------------
Iteration    Energy (Eh)           Delta-E    RMSDP     MaxDP     DIISErr   Damp  Time(sec)
-------------------------------------------------------------------------------------------
               ***  Starting incremental Fock matrix formation  ***
    1    -999.8843451809111684     0.00e+00  1.90e-01  8.22e+00  2.42e-01  0.700  27.3
    2    -1000.1470520113093698    -2.63e-01  1.58e-01  6.92e+00  9.06e-02  0.700  13.6
                               ***Turning on AO-DIIS***
    3    -1000.2563303277865998    -1.09e-01  4.10e-02  1.59e+00  3.89e-02  0.700  13.1
    4    -1000.3204121811554614    -6.41e-02  1.21e-01  4.65e+00  1.97e-02  0.000  13.8
    5    -1000.4587132313286020    -1.38e-01  3.73e-02  1.84e+00  5.44e-03  0.000  13.2
                              *** Initializing SOSCF ***
---------------------------------------S-O-S-C-F--------------------------------------
Iteration    Energy (Eh)           Delta-E    RMSDP     MaxDP     MaxGrad    Time(sec)
--------------------------------------------------------------------------------------
    6    -1000.4593778768567063    -6.65e-04  1.22e-02  5.41e-01  1.12e-03    12.7
               *** Restarting incremental Fock matrix formation ***
    7    -1000.4594412599967654    -6.34e-05  3.69e-02  2.07e+00  2.58e-04    26.3
    8    -1000.4594343278718043     6.93e-06  5.18e-03  2.45e-01  5.22e-04    22.4
    9    -1000.4594501060450966    -1.58e-05  7.20e-03  4.35e-01  5.31e-05    19.9
   10    -1000.4594499809977606     1.25e-07  1.59e-03  8.81e-02  6.59e-05    19.4
   11    -1000.4594504782062359    -4.97e-07  2.30e-03  1.18e-01  1.98e-05    18.9
   12    -1000.4594504458896154     3.23e-08  8.62e-04  3.86e-02  2.96e-05    17.3
   13    -1000.4594504854603656    -3.96e-08  2.03e-03  1.41e-01  2.09e-06    16.9
                  *** Gradient check signals convergence ***

               *****************************************************
               *                     SUCCESS                       *
               *           SCF CONVERGED AFTER  13 CYCLES          *
               *****************************************************

Recomputing exchange energy using gridx3       ... done (   44.897 sec)
Old exchange energy                            :    -27.272723464 Eh
New exchange energy                            :    -27.272742396 Eh
Exchange energy change after final integration :     -0.000018932 Eh
Total energy after final integration           :  -1000.459469413 Eh
             **** ENERGY FILE WAS UPDATED (td.en.tmp) ****

----------------
TOTAL SCF ENERGY
----------------

Total Energy       :      -1000.45946941280465 Eh          -27223.88620 eV

Components:
Nuclear Repulsion  :       1742.88048014176275 Eh           47426.18897 eV
Electronic Energy  :      -2743.33993062232594 Eh          -74650.07465 eV
One Electron Energy:      -4818.75988693334330 Eh         -131125.12280 eV
Two Electron Energy:       2075.41995631101736 Eh           56475.04815 eV

Virial components:
Potential Energy   :      -1995.66488713108674 Eh          -54304.80238 eV
Kinetic Energy     :        995.20541771828209 Eh           27080.91618 eV
Virial Ratio       :          2.00527936403981

DFT components:
N(Alpha)           :       83.000017928038 electrons
N(Beta)            :       83.000017928038 electrons
N(Total)           :      166.000035856075 electrons
E(X)               :     -108.289741561674 Eh       
E(C)               :       -6.603188970602 Eh       
E(XC)              :     -114.892930532275 Eh       

---------------
SCF CONVERGENCE
---------------

  Last Energy change         ...    3.9571e-08  Tolerance :   1.0000e-08
  Last MAX-Density change    ...    1.4091e-01  Tolerance :   1.0000e-07
  Last RMS-Density change    ...    2.0290e-03  Tolerance :   5.0000e-09
  Last DIIS Error            ...    1.1157e-03  Tolerance :   5.0000e-07
  Last Orbital Gradient      ...    2.0945e-06  Tolerance :   1.0000e-05
  Last Orbital Rotation      ...    9.0826e-06  Tolerance :   1.0000e-05


----------------
ORBITAL ENERGIES
----------------

  NO   OCC          E(Eh)            E(eV) 
   0   2.0000     -19.190938      -522.2120 
   1   2.0000     -19.177389      -521.8433 
   2   2.0000     -19.129641      -520.5440 
   3   2.0000     -10.271338      -279.4973 
   4   2.0000     -10.264725      -279.3174 
   5   2.0000     -10.257944      -279.1328 
   6   2.0000     -10.241584      -278.6877 
   7   2.0000     -10.202885      -277.6346 
   8   2.0000     -10.199958      -277.5550 
   9   2.0000     -10.198958      -277.5278 
  10   2.0000     -10.196579      -277.4630 
  11   2.0000     -10.195186      -277.4251 
  12   2.0000     -10.191347      -277.3206 
  13   2.0000     -10.190359      -277.2938 
  14   2.0000     -10.189882      -277.2808 
  15   2.0000     -10.188853      -277.2528 
  16   2.0000     -10.188756      -277.2501 
  17   2.0000     -10.187380      -277.2127 
  18   2.0000     -10.186654      -277.1930 
  19   2.0000     -10.172850      -276.8173 
  20   2.0000     -10.170312      -276.7483 
  21   2.0000     -10.170177      -276.7446 
  22   2.0000     -10.169942      -276.7382 
  23   2.0000      -1.083752       -29.4904 
  24   2.0000      -1.078430       -29.3456 
  25   2.0000      -1.024992       -27.8914 
  26   2.0000      -0.878440       -23.9036 
  27   2.0000      -0.868047       -23.6208 
  28   2.0000      -0.833085       -22.6694 
  29   2.0000      -0.792978       -21.5780 
  30   2.0000      -0.774450       -21.0739 
  31   2.0000      -0.763421       -20.7737 
  32   2.0000      -0.759273       -20.6609 
  33   2.0000      -0.741678       -20.1821 
  34   2.0000      -0.713582       -19.4176 
  35   2.0000      -0.695374       -18.9221 
  36   2.0000      -0.694483       -18.8978 
  37   2.0000      -0.664479       -18.0814 
  38   2.0000      -0.630096       -17.1458 
  39   2.0000      -0.620593       -16.8872 
  40   2.0000      -0.613230       -16.6868 
  41   2.0000      -0.593905       -16.1610 
  42   2.0000      -0.570311       -15.5189 
  43   2.0000      -0.559164       -15.2156 
  44   2.0000      -0.546939       -14.8830 
  45   2.0000      -0.524498       -14.2723 
  46   2.0000      -0.504690       -13.7333 
  47   2.0000      -0.490946       -13.3593 
  48   2.0000      -0.483737       -13.1632 
  49   2.0000      -0.482200       -13.1213 
  50   2.0000      -0.468684       -12.7535 
  51   2.0000      -0.464261       -12.6332 
  52   2.0000      -0.456997       -12.4355 
  53   2.0000      -0.452908       -12.3243 
  54   2.0000      -0.449016       -12.2184 
  55   2.0000      -0.437693       -11.9102 
  56   2.0000      -0.434024       -11.8104 
  57   2.0000      -0.432132       -11.7589 
  58   2.0000      -0.430770       -11.7218 
  59   2.0000      -0.423149       -11.5145 
  60   2.0000      -0.420438       -11.4407 
  61   2.0000      -0.405739       -11.0407 
  62   2.0000      -0.397206       -10.8085 
  63   2.0000      -0.394932       -10.7466 
  64   2.0000      -0.391283       -10.6474 
  65   2.0000      -0.384152       -10.4533 
  66   2.0000      -0.378365       -10.2958 
  67   2.0000      -0.374526       -10.1914 
  68   2.0000      -0.371503       -10.1091 
  69   2.0000      -0.365835        -9.9549 
  70   2.0000      -0.363904        -9.9023 
  71   2.0000      -0.355859        -9.6834 
  72   2.0000      -0.338453        -9.2098 
  73   2.0000      -0.335811        -9.1379 
  74   2.0000      -0.332062        -9.0359 
  75   2.0000      -0.326982        -8.8976 
  76   2.0000      -0.323325        -8.7981 
  77   2.0000      -0.269659        -7.3378 
  78   2.0000      -0.265877        -7.2349 
  79   2.0000      -0.261703        -7.1213 
  80   2.0000      -0.256860        -6.9895 
  81   2.0000      -0.236929        -6.4472 
  82   2.0000      -0.223909        -6.0929 
  83   0.0000      -0.070906        -1.9294 
  84   0.0000      -0.022783        -0.6200 
  85   0.0000      -0.014699        -0.4000 
  86   0.0000      -0.013763        -0.3745 
  87   0.0000      -0.002593        -0.0705 
  88   0.0000       0.003487         0.0949 
  89   0.0000       0.010316         0.2807 
  90   0.0000       0.020996         0.5713 
  91   0.0000       0.024826         0.6755 
  92   0.0000       0.025117         0.6835 
  93   0.0000       0.028508         0.7757 
*Only the first 10 virtual orbitals were printed.

                    ********************************
                    * MULLIKEN POPULATION ANALYSIS *
                    ********************************

-----------------------
MULLIKEN ATOMIC CHARGES
-----------------------
   0 C :   -0.623675
   1 C :    0.669199
   2 C :   -0.523116
   3 C :   -0.610530
   4 C :   -0.179661
   5 C :   -0.470016
   6 C :   -0.335264
   7 C :    2.253799
   8 C :   -0.315265
   9 C :   -0.382652
  10 C :   -2.034701
  11 O :   -0.628420
  12 C :    0.140663
  13 C :   -1.580435
  14 O :   -0.547899
  15 C :    2.110872
  16 C :   -0.216085
  17 C :   -0.781237
  18 C :    0.152681
  19 O :   -0.379527
  20 C :   -0.331533
  21 C :    0.670405
  22 C :   -0.849365
  23 H :    0.223020
  24 H :    0.210621
  25 H :    0.214299
  26 H :    0.219901
  27 H :    0.222146
  28 H :    0.212474
  29 H :    0.210648
  30 H :    0.210613
  31 H :    0.224686
  32 H :    0.177521
  33 H :    0.204314
  34 H :    0.178172
  35 H :    0.171687
  36 H :    0.559823
  37 H :    0.174356
  38 H :    0.177954
  39 H :    0.188955
  40 H :    0.205424
  41 H :    0.208724
  42 H :    0.206832
  43 H :    0.178358
  44 H :    0.211228
Sum of atomic charges:   -0.0000000

--------------------------------
MULLIKEN REDUCED ORBITAL CHARGES
--------------------------------
  0 C s       :     3.500204  s :     3.500204
      pz      :     0.961685  p :     3.088172
      px      :     1.075467
      py      :     1.051021
      dz2     :     0.007580  d :     0.035299
      dxz     :     0.009727
      dyz     :     0.004253
      dx2y2   :     0.010757
      dxy     :     0.002982

  1 C s       :     2.526173  s :     2.526173
      pz      :     0.977921  p :     2.754595
      px      :     0.833078
      py      :     0.943597
      dz2     :     0.009519  d :     0.050033
      dxz     :     0.010866
      dyz     :     0.008922
      dx2y2   :     0.012287
      dxy     :     0.008439

  2 C s       :     3.420099  s :     3.420099
      pz      :     0.970491  p :     3.067831
      px      :     1.014672
      py      :     1.082667
      dz2     :     0.007982  d :     0.035186
      dxz     :     0.006797
      dyz     :     0.006367
      dx2y2   :     0.009506
      dxy     :     0.004534

  3 C s       :     3.498571  s :     3.498571
      pz      :     1.082427  p :     3.076699
      px      :     1.085315
      py      :     0.908956
      dz2     :     0.005668  d :     0.035260
      dxz     :     0.008149
      dyz     :     0.007613
      dx2y2   :     0.007507
      dxy     :     0.006323

  4 C s       :     3.107281  s :     3.107281
      pz      :     1.221593  p :     3.030558
      px      :     0.783852
      py      :     1.025113
      dz2     :     0.009156  d :     0.041822
      dxz     :     0.012036
      dyz     :     0.006011
      dx2y2   :     0.007512
      dxy     :     0.007106

  5 C s       :     3.151482  s :     3.151482
      pz      :     1.025987  p :     3.281450
      px      :     1.218355
      py      :     1.037107
      dz2     :     0.007046  d :     0.037085
      dxz     :     0.013016
      dyz     :     0.004765
      dx2y2   :     0.006699
      dxy     :     0.005559

  6 C s       :     3.385853  s :     3.385853
      pz      :     0.823695  p :     2.912140
      px      :     1.120715
      py      :     0.967729
      dz2     :     0.007695  d :     0.037271
      dxz     :     0.010007
      dyz     :     0.005765
      dx2y2   :     0.006575
      dxy     :     0.007230

  7 C s       :     1.064221  s :     1.064221
      pz      :     0.683917  p :     2.641755
      px      :     1.027498
      py      :     0.930339
      dz2     :     0.009441  d :     0.040225
      dxz     :     0.010875
      dyz     :     0.005992
      dx2y2   :     0.006882
      dxy     :     0.007035

  8 C s       :     3.060860  s :     3.060860
      pz      :     1.029558  p :     3.216815
      px      :     1.209933
      py      :     0.977324
      dz2     :     0.007301  d :     0.037590
      dxz     :     0.013015
      dyz     :     0.004865
      dx2y2   :     0.006890
      dxy     :     0.005519

  9 C s       :     3.287572  s :     3.287572
      pz      :     1.035069  p :     3.058198
      px      :     0.990926
      py      :     1.032202
      dz2     :     0.008310  d :     0.036882
      dxz     :     0.009466
      dyz     :     0.005785
      dx2y2   :     0.006532
      dxy     :     0.006789

 10 C s       :     4.139617  s :     4.139617
      pz      :     0.933103  p :     3.817331
      px      :     2.016362
      py      :     0.867866
      dz2     :     0.014882  d :     0.077753
      dxz     :     0.013452
      dyz     :     0.013964
      dx2y2   :     0.018651
      dxy     :     0.016804

 11 O s       :     3.952500  s :     3.952500
      pz      :     1.576424  p :     4.647205
      px      :     1.571907
      py      :     1.498874
      dz2     :     0.006164  d :     0.028715
      dxz     :     0.002945
      dyz     :     0.005494
      dx2y2   :     0.010534
      dxy     :     0.003578

 12 C s       :     2.047331  s :     2.047331
      pz      :     1.179992  p :     3.781524
      px      :     1.468070
      py      :     1.133461
      dz2     :     0.003127  d :     0.030482
      dxz     :     0.005669
      dyz     :     0.005758
      dx2y2   :     0.008556
      dxy     :     0.007372

 13 C s       :     4.164873  s :     4.164873
      pz      :     0.841068  p :     3.325628
      px      :     1.673886
      py      :     0.810674
      dz2     :     0.014987  d :     0.089934
      dxz     :     0.018609
      dyz     :     0.013812
      dx2y2   :     0.017781
      dxy     :     0.024745

 14 O s       :     3.965931  s :     3.965931
      pz      :     1.403484  p :     4.557244
      px      :     1.796623
      py      :     1.357137
      dz2     :     0.006516  d :     0.024724
      dxz     :     0.002717
      dyz     :     0.006223
      dx2y2   :     0.005364
      dxy     :     0.003905

 15 C s       :     1.510284  s :     1.510284
      pz      :     0.871173  p :     2.339938
      px      :     0.584248
      py      :     0.884517
      dz2     :     0.008541  d :     0.038906
      dxz     :     0.009932
      dyz     :     0.006150
      dx2y2   :     0.006721
      dxy     :     0.007562

 16 C s       :     2.940727  s :     2.940727
      pz      :     1.036596  p :     3.237159
      px      :     1.197156
      py      :     1.003407
      dz2     :     0.007207  d :     0.038200
      dxz     :     0.012113
      dyz     :     0.005306
      dx2y2   :     0.008238
      dxy     :     0.005336

 17 C s       :     3.682536  s :     3.682536
      pz      :     1.040625  p :     3.063762
      px      :     1.029120
      py      :     0.994016
      dz2     :     0.006288  d :     0.034939
      dxz     :     0.008895
      dyz     :     0.006536
      dx2y2   :     0.006968
      dxy     :     0.006253

 18 C s       :     3.234189  s :     3.234189
      pz      :     1.037979  p :     2.540242
      px      :     0.607971
      py      :     0.894291
      dz2     :     0.013357  d :     0.072889
      dxz     :     0.018827
      dyz     :     0.008872
      dx2y2   :     0.015478
      dxy     :     0.016354

 19 O s       :     3.860960  s :     3.860960
      pz      :     1.606763  p :     4.488657
      px      :     1.208689
      py      :     1.673205
      dz2     :     0.004384  d :     0.029910
      dxz     :     0.009544
      dyz     :     0.004154
      dx2y2   :     0.005325
      dxy     :     0.006503

 20 C s       :     3.344675  s :     3.344675
      pz      :     1.020499  p :     2.926662
      px      :     0.780936
      py      :     1.125227
      dz2     :     0.012829  d :     0.060196
      dxz     :     0.014844
      dyz     :     0.007340
      dx2y2   :     0.011506
      dxy     :     0.013677

 21 C s       :     2.045287  s :     2.045287
      pz      :     0.957024  p :     3.248925
      px      :     1.201436
      py      :     1.090465
      dz2     :     0.006688  d :     0.035382
      dxz     :     0.010399
      dyz     :     0.005573
      dx2y2   :     0.007906
      dxy     :     0.004817

 22 C s       :     3.847101  s :     3.847101
      pz      :     0.969975  p :     2.964400
      px      :     0.992593
      py      :     1.001831
      dz2     :     0.006890  d :     0.037864
      dxz     :     0.008978
      dyz     :     0.006682
      dx2y2   :     0.007712
      dxy     :     0.007602

 23 H s       :     0.776980  s :     0.776980

 24 H s       :     0.789379  s :     0.789379

 25 H s       :     0.785701  s :     0.785701

 26 H s       :     0.780099  s :     0.780099

 27 H s       :     0.777854  s :     0.777854

 28 H s       :     0.787526  s :     0.787526

 29 H s       :     0.789352  s :     0.789352

 30 H s       :     0.789387  s :     0.789387

 31 H s       :     0.775314  s :     0.775314

 32 H s       :     0.822479  s :     0.822479

 33 H s       :     0.795686  s :     0.795686

 34 H s       :     0.821828  s :     0.821828

 35 H s       :     0.828313  s :     0.828313

 36 H s       :     0.440177  s :     0.440177

 37 H s       :     0.825644  s :     0.825644

 38 H s       :     0.822046  s :     0.822046

 39 H s       :     0.811045  s :     0.811045

 40 H s       :     0.794576  s :     0.794576

 41 H s       :     0.791276  s :     0.791276

 42 H s       :     0.793168  s :     0.793168

 43 H s       :     0.821642  s :     0.821642

 44 H s       :     0.788772  s :     0.788772



                     *******************************
                     * LOEWDIN POPULATION ANALYSIS *
                     *******************************

----------------------
LOEWDIN ATOMIC CHARGES
----------------------
   0 C :   -0.479167
   1 C :   -0.258646
   2 C :   -0.496138
   3 C :   -0.481569
   4 C :   -0.115765
   5 C :   -0.194425
   6 C :   -0.140452
   7 C :   -0.093438
   8 C :   -0.162421
   9 C :   -0.196980
  10 C :    0.124017
  11 O :   -0.421953
  12 C :   -0.289052
  13 C :    0.128971
  14 O :   -0.420911
  15 C :   -0.121946
  16 C :   -0.160961
  17 C :   -0.181072
  18 C :    0.051652
  19 O :   -0.385116
  20 C :   -0.252566
  21 C :   -0.227486
  22 C :   -0.127877
  23 H :    0.208191
  24 H :    0.199009
  25 H :    0.202265
  26 H :    0.203423
  27 H :    0.204906
  28 H :    0.201100
  29 H :    0.200760
  30 H :    0.198903
  31 H :    0.208583
  32 H :    0.221344
  33 H :    0.234924
  34 H :    0.220299
  35 H :    0.219477
  36 H :    0.442834
  37 H :    0.230267
  38 H :    0.219619
  39 H :    0.227808
  40 H :    0.198293
  41 H :    0.203643
  42 H :    0.197904
  43 H :    0.220973
  44 H :    0.238777

-------------------------------
LOEWDIN REDUCED ORBITAL CHARGES
-------------------------------
  0 C s       :     2.986961  s :     2.986961
      pz      :     1.111903  p :     3.423378
      px      :     1.156037
      py      :     1.155438
      dz2     :     0.015197  d :     0.068829
      dxz     :     0.018812
      dyz     :     0.009437
      dx2y2   :     0.019822
      dxy     :     0.005560

  1 C s       :     2.864866  s :     2.864866
      pz      :     1.103665  p :     3.277194
      px      :     1.075999
      py      :     1.097529
      dz2     :     0.022015  d :     0.116586
      dxz     :     0.026536
      dyz     :     0.020169
      dx2y2   :     0.029875
      dxy     :     0.017991

  2 C s       :     2.986297  s :     2.986297
      pz      :     1.138672  p :     3.441272
      px      :     1.134274
      py      :     1.168326
      dz2     :     0.015430  d :     0.068569
      dxz     :     0.014838
      dyz     :     0.011930
      dx2y2   :     0.017923
      dxy     :     0.008448

  3 C s       :     2.987108  s :     2.987108
      pz      :     1.164376  p :     3.425703
      px      :     1.165988
      py      :     1.095339
      dz2     :     0.010908  d :     0.068759
      dxz     :     0.014811
      dyz     :     0.014733
      dx2y2   :     0.016168
      dxy     :     0.012139

  4 C s       :     2.855201  s :     2.855201
      pz      :     1.089391  p :     3.156894
      px      :     1.088411
      py      :     0.979092
      dz2     :     0.023665  d :     0.103671
      dxz     :     0.031466
      dyz     :     0.015168
      dx2y2   :     0.017389
      dxy     :     0.015983

  5 C s       :     2.881854  s :     2.881854
      pz      :     1.082588  p :     3.224320
      px      :     1.116450
      py      :     1.025281
      dz2     :     0.017332  d :     0.088251
      dxz     :     0.030486
      dyz     :     0.011552
      dx2y2   :     0.015403
      dxy     :     0.013478

  6 C s       :     2.885598  s :     2.885598
      pz      :     1.083625  p :     3.166860
      px      :     1.091246
      py      :     0.991989
      dz2     :     0.017363  d :     0.087995
      dxz     :     0.025564
      dyz     :     0.010607
      dx2y2   :     0.017733
      dxy     :     0.016727

  7 C s       :     2.832806  s :     2.832806
      pz      :     1.089806  p :     3.157436
      px      :     1.056462
      py      :     1.011169
      dz2     :     0.024608  d :     0.103196
      dxz     :     0.029943
      dyz     :     0.014969
      dx2y2   :     0.017474
      dxy     :     0.016202

  8 C s       :     2.884217  s :     2.884217
      pz      :     1.077325  p :     3.189459
      px      :     1.113939
      py      :     0.998195
      dz2     :     0.017773  d :     0.088745
      dxz     :     0.030265
      dyz     :     0.011733
      dx2y2   :     0.015849
      dxy     :     0.013125

  9 C s       :     2.882013  s :     2.882013
      pz      :     1.087455  p :     3.226935
      px      :     1.113089
      py      :     1.026391
      dz2     :     0.018881  d :     0.088032
      dxz     :     0.024897
      dyz     :     0.010742
      dx2y2   :     0.017796
      dxy     :     0.015715

 10 C s       :     2.810287  s :     2.810287
      pz      :     0.879038  p :     2.883562
      px      :     1.101302
      py      :     0.903222
      dz2     :     0.031498  d :     0.182134
      dxz     :     0.031344
      dyz     :     0.035103
      dx2y2   :     0.043109
      dxy     :     0.041079

 11 O s       :     3.525460  s :     3.525460
      pz      :     1.635241  p :     4.840797
      px      :     1.627359
      py      :     1.578198
      dz2     :     0.010002  d :     0.055695
      dxz     :     0.006119
      dyz     :     0.013624
      dx2y2   :     0.018037
      dxy     :     0.007913

 12 C s       :     2.873949  s :     2.873949
      pz      :     1.144768  p :     3.338136
      px      :     1.070265
      py      :     1.123103
      dz2     :     0.007189  d :     0.076967
      dxz     :     0.014897
      dyz     :     0.011518
      dx2y2   :     0.023542
      dxy     :     0.019822

 13 C s       :     2.808785  s :     2.808785
      pz      :     0.864850  p :     2.850084
      px      :     1.065901
      py      :     0.919333
      dz2     :     0.030795  d :     0.212160
      dxz     :     0.044279
      dyz     :     0.035712
      dx2y2   :     0.040368
      dxy     :     0.061006

 14 O s       :     3.563880  s :     3.563880
      pz      :     1.492364  p :     4.803902
      px      :     1.822646
      py      :     1.488893
      dz2     :     0.009411  d :     0.053129
      dxz     :     0.006014
      dyz     :     0.017982
      dx2y2   :     0.011107
      dxy     :     0.008614

 15 C s       :     2.840838  s :     2.840838
      pz      :     1.079869  p :     3.180216
      px      :     1.071256
      py      :     1.029091
      dz2     :     0.021686  d :     0.100892
      dxz     :     0.027664
      dyz     :     0.015950
      dx2y2   :     0.017198
      dxy     :     0.018394

 16 C s       :     2.885859  s :     2.885859
      pz      :     1.070788  p :     3.185134
      px      :     1.107461
      py      :     1.006884
      dz2     :     0.017252  d :     0.089968
      dxz     :     0.027568
      dyz     :     0.013635
      dx2y2   :     0.017985
      dxy     :     0.013528

 17 C s       :     2.886427  s :     2.886427
      pz      :     1.081963  p :     3.210788
      px      :     1.076489
      py      :     1.052335
      dz2     :     0.014314  d :     0.083858
      dxz     :     0.023502
      dyz     :     0.012401
      dx2y2   :     0.018068
      dxy     :     0.015572

 18 C s       :     2.808237  s :     2.808237
      pz      :     1.054980  p :     2.966508
      px      :     0.968038
      py      :     0.943491
      dz2     :     0.031013  d :     0.173602
      dxz     :     0.046613
      dyz     :     0.023065
      dx2y2   :     0.035023
      dxy     :     0.037888

 19 O s       :     3.483030  s :     3.483030
      pz      :     1.703992  p :     4.830899
      px      :     1.393085
      py      :     1.733823
      dz2     :     0.009743  d :     0.071187
      dxz     :     0.022319
      dyz     :     0.006814
      dx2y2   :     0.015214
      dxy     :     0.017096

 20 C s       :     2.955644  s :     2.955644
      pz      :     1.085124  p :     3.177143
      px      :     0.925153
      py      :     1.166865
      dz2     :     0.025166  d :     0.119780
      dxz     :     0.031997
      dyz     :     0.013438
      dx2y2   :     0.022254
      dxy     :     0.026924

 21 C s       :     2.881163  s :     2.881163
      pz      :     1.072960  p :     3.261253
      px      :     1.118641
      py      :     1.069652
      dz2     :     0.016430  d :     0.085070
      dxz     :     0.024073
      dyz     :     0.014866
      dx2y2   :     0.017319
      dxy     :     0.012381

 22 C s       :     2.887517  s :     2.887517
      pz      :     1.075464  p :     3.151149
      px      :     1.079200
      py      :     0.996486
      dz2     :     0.015533  d :     0.089210
      dxz     :     0.022735
      dyz     :     0.012563
      dx2y2   :     0.019737
      dxy     :     0.018643

 23 H s       :     0.791809  s :     0.791809

 24 H s       :     0.800991  s :     0.800991

 25 H s       :     0.797735  s :     0.797735

 26 H s       :     0.796577  s :     0.796577

 27 H s       :     0.795094  s :     0.795094

 28 H s       :     0.798900  s :     0.798900

 29 H s       :     0.799240  s :     0.799240

 30 H s       :     0.801097  s :     0.801097

 31 H s       :     0.791417  s :     0.791417

 32 H s       :     0.778656  s :     0.778656

 33 H s       :     0.765076  s :     0.765076

 34 H s       :     0.779701  s :     0.779701

 35 H s       :     0.780523  s :     0.780523

 36 H s       :     0.557166  s :     0.557166

 37 H s       :     0.769733  s :     0.769733

 38 H s       :     0.780381  s :     0.780381

 39 H s       :     0.772192  s :     0.772192

 40 H s       :     0.801707  s :     0.801707

 41 H s       :     0.796357  s :     0.796357

 42 H s       :     0.802096  s :     0.802096

 43 H s       :     0.779027  s :     0.779027

 44 H s       :     0.761223  s :     0.761223



                      *****************************
                      * MAYER POPULATION ANALYSIS *
                      *****************************

  NA   - Mulliken gross atomic population
  ZA   - Total nuclear charge
  QA   - Mulliken gross atomic charge
  VA   - Mayer's total valence
  BVA  - Mayer's bonded valence
  FA   - Mayer's free valence

  ATOM       NA         ZA         QA         VA         BVA        FA
  0 C      6.6237     6.0000    -0.6237     3.4117     3.4117    -0.0000
  1 C      5.3308     6.0000     0.6692     2.0896     2.0896    -0.0000
  2 C      6.5231     6.0000    -0.5231     3.1370     3.1370    -0.0000
  3 C      6.6105     6.0000    -0.6105     3.3514     3.3514    -0.0000
  4 C      6.1797     6.0000    -0.1797     3.5906     3.5906    -0.0000
  5 C      6.4700     6.0000    -0.4700     4.6338     4.6338     0.0000
  6 C      6.3353     6.0000    -0.3353     2.6588     2.6588    -0.0000
  7 C      3.7462     6.0000     2.2538    -4.2740    -4.2740     0.0000
  8 C      6.3153     6.0000    -0.3153     3.9500     3.9500    -0.0000
  9 C      6.3827     6.0000    -0.3827     3.3045     3.3045     0.0000
 10 C      8.0347     6.0000    -2.0347     1.2650     1.2650    -0.0000
 11 O      8.6284     8.0000    -0.6284     1.5936     1.5936    -0.0000
 12 C      5.8593     6.0000     0.1407     2.9368     2.9368     0.0000
 13 C      7.5804     6.0000    -1.5804     2.7123     2.7123     0.0000
 14 O      8.5479     8.0000    -0.5479     1.9074     1.9074     0.0000
 15 C      3.8891     6.0000     2.1109    -3.0391    -3.0391    -0.0000
 16 C      6.2161     6.0000    -0.2161     3.8525     3.8525     0.0000
 17 C      6.7812     6.0000    -0.7812     3.7930     3.7930     0.0000
 18 C      5.8473     6.0000     0.1527     3.7434     3.7434    -0.0000
 19 O      8.3795     8.0000    -0.3795     1.6155     1.6155    -0.0000
 20 C      6.3315     6.0000    -0.3315     3.5246     3.5246    -0.0000
 21 C      5.3296     6.0000     0.6704     2.1875     2.1875    -0.0000
 22 C      6.8494     6.0000    -0.8494     3.7417     3.7417     0.0000
 23 H      0.7770     1.0000     0.2230     0.8995     0.8995     0.0000
 24 H      0.7894     1.0000     0.2106     0.9039     0.9039    -0.0000
 25 H      0.7857     1.0000     0.2143     0.9010     0.9010    -0.0000
 26 H      0.7801     1.0000     0.2199     0.8982     0.8982    -0.0000
 27 H      0.7779     1.0000     0.2221     0.8976     0.8976    -0.0000
 28 H      0.7875     1.0000     0.2125     0.9053     0.9053    -0.0000
 29 H      0.7894     1.0000     0.2106     0.9025     0.9025    -0.0000
 30 H      0.7894     1.0000     0.2106     0.9042     0.9042    -0.0000
[...]
  0-1A  ->  4-1A    4.565969   36827.0   271.5   0.003097816   0.02769  -0.06199  -0.02902   0.15168
  0-1A  ->  5-1A    4.629537   37339.7   267.8   0.009333419   0.08229   0.17472  -0.16101   0.16074
  0-1A  ->  6-1A    4.995590   40292.2   248.2   0.010365281   0.08469   0.28480   0.05708  -0.01802
  0-1A  ->  7-1A    5.101645   41147.5   243.0   0.055869166   0.44700  -0.01052   0.46311  -0.48210
  0-1A  ->  8-1A    5.201281   41951.2   238.4   0.011532685   0.09050   0.28970   0.05959  -0.05498
  0-1A  ->  9-1A    5.251231   42354.0   236.1   0.010613645   0.08250  -0.22633   0.16041   0.07444
  0-1A  -> 10-1A    5.416846   43689.8   228.9   0.095859189   0.72232  -0.68574  -0.41130   0.28794
  0-1A  -> 11-1A    5.428382   43782.9   228.4   0.006029831   0.04534  -0.08473   0.12760   0.14791
  0-1A  -> 12-1A    5.471620   44131.6   226.6   0.065220030   0.48653  -0.64165   0.04633  -0.26958
  0-1A  -> 13-1A    5.578435   44993.1   222.3   0.031544546   0.23081  -0.41774  -0.20479   0.11986
  0-1A  -> 14-1A    5.603019   45191.4   221.3   0.014581081   0.10622  -0.22464  -0.16024   0.17344
  0-1A  -> 15-1A    5.619498   45324.3   220.6   0.005808774   0.04219  -0.07431  -0.19123  -0.01009
  0-1A  -> 16-1A    5.789476   46695.3   214.2   0.012237341   0.08628  -0.27786  -0.08869   0.03466
  0-1A  -> 17-1A    5.825065   46982.3   212.8   0.005018376   0.03516   0.05754   0.17487   0.03569
  0-1A  -> 18-1A    5.865294   47306.8   211.4   0.002776790   0.01932   0.13765  -0.01930   0.00163
  0-1A  -> 19-1A    5.877835   47407.9   210.9   0.020026197   0.13907  -0.35930   0.00434   0.09976
  0-1A  -> 20-1A    6.067283   48935.9   204.3   0.023395554   0.15739  -0.39405   0.04224   0.01817
  0-1A  -> 21-1A    6.093079   49144.0   203.5   0.003164536   0.02120  -0.02335  -0.12139  -0.07693
  0-1A  -> 22-1A    6.128202   49427.3   202.3   0.000340609   0.00227   0.00623  -0.03116   0.03548

----------------------------------------------------------------------------------------------------
                     ABSORPTION SPECTRUM VIA TRANSITION VELOCITY DIPOLE MOMENTS    
----------------------------------------------------------------------------------------------------
     Transition      Energy     Energy  Wavelength fosc(P2)      P2        PX        PY        PZ   
                      (eV)      (cm-1)    (nm)                 (au**2)    (au)      (au)      (au)  
----------------------------------------------------------------------------------------------------
  0-1A  ->  1-1A    3.771196   30416.7   328.8   0.109723104   0.02281   0.15055  -0.00677   0.00993
  0-1A  ->  2-1A    3.899152   31448.8   318.0   0.304297038   0.06540  -0.25498   0.00377  -0.01940
  0-1A  ->  3-1A    4.344828   35043.4   285.4   0.060060590   0.01438  -0.11979  -0.00558  -0.00218
  0-1A  ->  4-1A    4.565969   36827.0   271.5   0.001184786   0.00030  -0.00210  -0.00605   0.01604
  0-1A  ->  5-1A    4.629537   37339.7   267.8   0.000881554   0.00022  -0.01411  -0.00081   0.00502
  0-1A  ->  6-1A    4.995590   40292.2   248.2   0.002604463   0.00072  -0.02108   0.01650  -0.00084
  0-1A  ->  7-1A    5.101645   41147.5   243.0   0.001372942   0.00039   0.00716  -0.01065  -0.01488
  0-1A  ->  8-1A    5.201281   41951.2   238.4   0.000377165   0.00011   0.00802  -0.00362  -0.00554
  0-1A  ->  9-1A    5.251231   42354.0   236.1   0.024682582   0.00714   0.04205  -0.04831   0.05517
  0-1A  -> 10-1A    5.416846   43689.8   228.9   0.042941583   0.01282   0.11264   0.00308   0.01120
  0-1A  -> 11-1A    5.428382   43782.9   228.4   0.001640311   0.00049   0.01244  -0.01824  -0.00187
  0-1A  -> 12-1A    5.471620   44131.6   226.6   0.018913427   0.00570   0.07511   0.00368  -0.00699
  0-1A  -> 13-1A    5.578435   44993.1   222.3   0.017363936   0.00534   0.07204   0.00886   0.00843
  0-1A  -> 14-1A    5.603019   45191.4   221.3   0.002781163   0.00086   0.02534  -0.00712   0.01289
  0-1A  -> 15-1A    5.619498   45324.3   220.6   0.002666912   0.00083   0.00879   0.02064   0.01797
  0-1A  -> 16-1A    5.789476   46695.3   214.2   0.005326065   0.00170   0.04092  -0.00220   0.00451
  0-1A  -> 17-1A    5.825065   46982.3   212.8   0.002499827   0.00080  -0.00704  -0.02519  -0.01089
  0-1A  -> 18-1A    5.865294   47306.8   211.4   0.001358700   0.00044  -0.01951   0.00763   0.00055
  0-1A  -> 19-1A    5.877835   47407.9   210.9   0.007175000   0.00232   0.04785  -0.00273   0.00522
  0-1A  -> 20-1A    6.067283   48935.9   204.3   0.008552363   0.00286   0.05308  -0.00578   0.00299
  0-1A  -> 21-1A    6.093079   49144.0   203.5   0.001459816   0.00049   0.00541   0.01785   0.01193
  0-1A  -> 22-1A    6.128202   49427.3   202.3   0.000917987   0.00031   0.00298  -0.01284  -0.01168

------------------------------------------------------------------------------------------
                     CD SPECTRUM VIA TRANSITION ELECTRIC DIPOLE MOMENTS    
------------------------------------------------------------------------------------------
     Transition      Energy     Energy  Wavelength    R        MX        MY        MZ   
                      (eV)      (cm-1)    (nm)   (1e40*cgs)   (au)      (au)      (au)  
------------------------------------------------------------------------------------------
  0-1A  ->  1-1A    3.771196   30416.7   328.8   14.99696   0.03718  -0.05349   0.26485
  0-1A  ->  2-1A    3.899152   31448.8   318.0   23.18364  -0.00054  -0.26157  -0.23296
  0-1A  ->  3-1A    4.344828   35043.4   285.4  -36.20101   0.04950  -0.18072  -0.22927
  0-1A  ->  4-1A    4.565969   36827.0   271.5    1.37134  -0.01571  -0.06226  -0.03751
  0-1A  ->  5-1A    4.629537   37339.7   267.8    3.59382  -0.03456   0.08125   0.07152
  0-1A  ->  6-1A    4.995590   40292.2   248.2    5.06811  -0.03705   0.00082   0.01361
  0-1A  ->  7-1A    5.101645   41147.5   243.0  -11.72892   0.00231   0.12358   0.06706
  0-1A  ->  8-1A    5.201281   41951.2   238.4   -0.00456   0.01194  -0.04282   0.01635
  0-1A  ->  9-1A    5.251231   42354.0   236.1   -2.27334   0.03627   0.05540   0.05567
  0-1A  -> 10-1A    5.416846   43689.8   228.9  -26.01642   0.03497  -0.11468   0.11110
  0-1A  -> 11-1A    5.428382   43782.9   228.4   -3.44090  -0.08385   0.04908  -0.04103
  0-1A  -> 12-1A    5.471620   44131.6   226.6   23.49484   0.01384   0.17734   0.18239
  0-1A  -> 13-1A    5.578435   44993.1   222.3   14.35585   0.05683   0.02523  -0.01287
  0-1A  -> 14-1A    5.603019   45191.4   221.3    9.01217   0.02041   0.05160  -0.03610
  0-1A  -> 15-1A    5.619498   45324.3   220.6   -8.41245   0.01762  -0.11371   0.25675
  0-1A  -> 16-1A    5.789476   46695.3   214.2   -4.67884  -0.03921   0.05906   0.12312
  0-1A  -> 17-1A    5.825065   46982.3   212.8   -1.95157   0.01437   0.02455  -0.02746
  0-1A  -> 18-1A    5.865294   47306.8   211.4    1.55136  -0.02196   0.01418   0.00352
  0-1A  -> 19-1A    5.877835   47407.9   210.9   -2.93175  -0.01184  -0.03901   0.02139
  0-1A  -> 20-1A    6.067283   48935.9   204.3    8.36995   0.04769   0.00045   0.05616
  0-1A  -> 21-1A    6.093079   49144.0   203.5    0.28069  -0.00699  -0.02210   0.04473
  0-1A  -> 22-1A    6.128202   49427.3   202.3   -0.22743   0.12787   0.02699   0.01484

------------------------------------------------------------------------------------------
                     CD SPECTRUM VIA TRANSITION VELOCITY DIPOLE MOMENTS    
------------------------------------------------------------------------------------------
     Transition      Energy     Energy  Wavelength    R        MX        MY        MZ   
                      (eV)      (cm-1)    (nm)   (1e40*cgs)   (au)      (au)      (au)  
------------------------------------------------------------------------------------------
  0-1A  ->  1-1A    3.771196   30416.7   328.8   29.21993   0.03718  -0.05349   0.26485
  0-1A  ->  2-1A    3.899152   31448.8   318.0   12.07301  -0.00054  -0.26157  -0.23296
  0-1A  ->  3-1A    4.344828   35043.4   285.4  -13.05076   0.04950  -0.18072  -0.22927
  0-1A  ->  4-1A    4.565969   36827.0   271.5   -0.53896  -0.01571  -0.06226  -0.03751
  0-1A  ->  5-1A    4.629537   37339.7   267.8    2.16430  -0.03456   0.08125   0.07152
  0-1A  ->  6-1A    4.995590   40292.2   248.2    2.01077  -0.03705   0.00082   0.01361
  0-1A  ->  7-1A    5.101645   41147.5   243.0   -5.77691   0.00231   0.12358   0.06706
  0-1A  ->  8-1A    5.201281   41951.2   238.4    0.39497   0.01194  -0.04282   0.01635
  0-1A  ->  9-1A    5.251231   42354.0   236.1    4.69187   0.03627   0.05540   0.05567
  0-1A  -> 10-1A    5.416846   43689.8   228.9   11.43808   0.03497  -0.11468   0.11110
  0-1A  -> 11-1A    5.428382   43782.9   228.4   -4.39974  -0.08385   0.04908  -0.04103
  0-1A  -> 12-1A    5.471620   44131.6   226.6    0.97762   0.01384   0.17734   0.18239
  0-1A  -> 13-1A    5.578435   44993.1   222.3    9.68057   0.05683   0.02523  -0.01287
  0-1A  -> 14-1A    5.603019   45191.4   221.3   -0.72225   0.02041   0.05160  -0.03610
  0-1A  -> 15-1A    5.619498   45324.3   220.6    5.52854   0.01762  -0.11371   0.25675
  0-1A  -> 16-1A    5.789476   46695.3   214.2   -2.61438  -0.03921   0.05906   0.12312
  0-1A  -> 17-1A    5.825065   46982.3   212.8   -0.92589   0.01437   0.02455  -0.02746
  0-1A  -> 18-1A    5.865294   47306.8   211.4    1.17805  -0.02196   0.01418   0.00352
  0-1A  -> 19-1A    5.877835   47407.9   210.9   -0.76040  -0.01184  -0.03901   0.02139
  0-1A  -> 20-1A    6.067283   48935.9   204.3    5.70308   0.04769   0.00045   0.05616
  0-1A  -> 21-1A    6.093079   49144.0   203.5    0.21394  -0.00699  -0.02210   0.04473
  0-1A  -> 22-1A    6.128202   49427.3   202.3   -0.29149   0.12787   0.02699   0.01484

Total run time:      307.802 sec

           *** ORCA-CIS/TD-DFT FINISHED WITHOUT ERROR ***
-----------------------
CIS/TD-DFT TOTAL ENERGY
-----------------------

    E(SCF)  =  -1000.459469413 Eh
    DE(CIS) =      0.138588893 Eh (Root  1)
    ----------------------------- ---------
    E(tot)  =  -1000.320880519 Eh


Maximum memory used throughout the entire CIS-calculation: 900.2 MB
=> NOW LEAVING ORCA_CIS

-------------------------   --------------------
FINAL SINGLE POINT ENERGY     -1000.320880519352
-------------------------   --------------------



           ************************************************************
           *        Program running with 4 parallel MPI-processes     *
           *              working on a common directory               *
           ************************************************************

------------------------------------------------------------------------------
                              ORCA PROPERTY CALCULATIONS
------------------------------------------------------------------------------

GBWName                                 ... td.gbw
Number of atoms                         ...     45
Number of basis functions               ...    458
Max core memory                         ...   2500 MB

Electric properties:
Dipole moment                           ... YES
Quadrupole moment                       ...  NO
Static polarizability (Dipole/Dipole)   ...  NO
Static polarizability (Dipole/Quad.)    ...  NO
Static polarizability (Quad./Quad.)     ...  NO
Static polarizability (Velocity)        ...  NO
Static hyperpolarizability              ...  NO

Atomic electric properties:
Dipole moment                           ...  NO
Quadrupole moment                       ...  NO
Static polarizability                   ...  NO

Choice of electric origin               ... Center of mass
Position of electric origin             ...     1.201078    -0.475818     0.273000

General magnetic properties:
Magnetizability                         ...  NO

EPR properties:
g-Tensor (aka g-matrix)                 ...  NO
Zero-Field splitting spin-orbit         ...  NO
Zero-field splitting spin-spin          ...  NO
Hyperfine couplings                     ...  NO (   0 nuclei)
Quadrupole couplings                    ...  NO (   0 nuclei)
Contact density                         ...  NO (   0 nuclei)

NMR properties:
Chemical shifts                         ...  NO (   0 nuclei)
Spin-rotation constants                 ...  NO (   0 nuclei)
Spin-spin couplings                     ...  NO (   0 nuclei,    0 pairs)

Choice of magnetic origin               ... GIAO
Position of magnetic origin             ...     0.000000     0.000000     0.000000

Properties with geometric perturbations:
SCF Hessian                             ...  NO
IR spectrum                             ...  NO
VCD spectrum                            ...  NO
X-ray spectroscopy properties:
SCF XES/XAS/RIXS spectra                ...  NO

SCF SOC stabilization energy            ...  NO
Diagonal Born-Oppenheimer correction    ...  NO

-------------
DIPOLE MOMENT
-------------

Method             : SCF
Type of density    : Electron Density
Multiplicity       :   1
Irrep              :   0
Energy             : -1000.4594694128046513 Eh
Basis              : AO
                                X                 Y                 Z
Electronic contribution:     26.446529602      -9.507201025       5.754318081
Nuclear contribution   :    -26.433683190      10.684406738      -6.258276052
                        -----------------------------------------
Total Dipole Moment    :      0.012846412       1.177205713      -0.503957971
                        -----------------------------------------
Magnitude (a.u.)       :      1.280606090
Magnitude (Debye)      :      3.255041998



--------------------
Rotational spectrum 
--------------------
 
Rotational constants in cm-1:             0.022563             0.002648             0.002436 
Rotational constants in MHz :           676.428241            79.377083            73.040120 

Dipole components along the rotational axes: 
x,y,z [a.u.] :     0.036684     1.223576     0.376122 
x,y,z [Debye]:     0.093243     3.110083     0.956027 

 

Dipole moment calculation done in   0.0 sec 

Maximum memory used throughout the entire PROP-calculation: 31.2 MB

--------------------------------
SUGGESTED CITATIONS FOR THIS RUN
--------------------------------

Below you find a list of papers that are relevant to this ORCA run
We neither can nor want to force you to cite these papers, but we appreciate if you do
You receive ORCA, which is the product of decades of hard work by many enthusiastic individuals, for free
The only thing we kindly ask in return is that you cite our papers,
We deeply appreciate it, if you show your appreciation for ORCA by not just citing the generic ORCA reference.

Please note that relegating all ORCA citations to the supporting information does *not* help us.
SI sections are not indexed - citations you put there will not count into any citation statistics
But we need these citations in order to attract the funding resources that allow us to do what we are doing

Therefore, if you are a happy ORCA user, please consider citing a few of the papers listed below in the main body of your paper

In addition to the list printed below, the program has created the file td.bibtex that contains the list in bibtex format
You can import this file easily into all common literature databanks and citation aid programs

It goes without saying that in many instances, there are alternative algorithms to achieve similar
results as the ones you have gotten from ORCA. It is, of course, also the case that in some instances
ORCA just re-implements algorithms worked out by others. We are fully aware of that and we are also
fully appreciative of our colleagues work. Hence this citation list should not be read as indicating
that the listed papers, which are focused on our own work, are the only ones worth citing. It simply
meant to make it easier for users to cite ORCA specific papers. It is not a substitute for doing your
own literature research and citing the relevant literature in a scientifically appropriate manner.

List of essential papers. We consider these as the minimum necessary citations

  1. Neese, F.
     Software update: the ORCA program system, version 6.0
     WIRES Comput. Molec. Sci. 2025 15(1), e70019
     doi.org/10.1002/wcms.70019

List of papers to cite with high priority. The work reported in these papers was absolutely
necessary for this run to complete.
Our perspective: the developers of density functionals and basis sets usually get cited in chemistry papers
Good! But without the algorithms to do something with them, the functionals or basis sets would not do anything.
Hence, in our opinion, the algorithm design and method developments papers are equally worthy of getting cited

  1. Neese, F.; Olbrich, G.
     Efficient use of the resolution of the identity approximation in time-dependent density functional calculations with hybrid density functionals
     Chem. Phys. Lett. 2002 362 , 170-178
     doi.org/10.1016/s0009-2614(02)01053-9
  2. Neese, F.
     An improvement of the resolution of the identity approximation for the formation of the Coulomb matrix
     J. Comp. Chem. 2003 24(14), 1740-1747
     doi.org/10.1002/jcc.10318
  3. Neese, F.; Wennmohs, F.; Hansen, A.; Becker, U.
     Efficient, approximate and parallel Hartree-Fock and hybrid DFT calculations. A 'chain-of-spheres' algorithm for the Hartree-Fock exchange
     Chem. Phys. 2009 356(1-3), 98-109
     doi.org/10.1016/j.chemphys.2008.10.036
  4. Helmich-Paris, B.; de Souza, B.; Neese, F.; Izsák, R.
     An improved chain of spheres for exchange algorithm
     J. Chem. Phys. 2021 155(10), 104109
     doi.org/10.1063/5.0058766
  5. Neese, F.
     The SHARK Integral Generation and Digestion System
     J. Comp. Chem. 2022 44(3), 381
     doi.org/10.1002/jcc.26942

List of suggested additional citations. These are papers that are important in the 'surrounding' of 
of this run, or papers that preceded the highly important papers. If you like your results we are grateful for a citation.

  1. Izsak, R.; Neese, F.
     An overlap fitted chain of spheres exchange method
     J. Chem. Phys. 2011 135 , 144105
     doi.org/10.1063/1.3646921
  2. Izsak, R.; Hansen, A.; Neese, F.
     The resolution of identity and chain of spheres approximations for the LPNO-CCSD singles Fock term
     Molec. Phys. 2012 110 , 2413-2417
     doi.org/10.1080/00268976.2012.687466
  3. Neese, F.
     The ORCA program system
     WIRES Comput. Molec. Sci. 2012 2(1), 73-78
     doi.org/10.1002/wcms.81
  4. Izsak, R.; Neese, F.; Klopper, W.
     Robust fitting techniques in the chain of spheres approximation to the Fock exchange: The role of the complementary space
     J. Chem. Phys. 2013 139 , 
     doi.org/10.1063/1.4819264
  5. Neese, F.
     Software update: the ORCA program system, version 4.0
     WIRES Comput. Molec. Sci. 2018 8(1), 1-6
     doi.org/10.1002/wcms.1327
  6. Neese, F.; Wennmohs, F.; Becker, U.; Riplinger, C.
     The ORCA quantum chemistry program package
     J. Chem. Phys. 2020 152(22), 224108
     doi.org/10.1063/5.0004608
  7. Neese, F.
     Software update: The ORCA program system—Version 5.0
     WIRES Comput. Molec. Sci. 2022 12(1), e1606
     doi.org/10.1002/wcms.1606

List of optional additional citations

  1. Neese, F.
     Approximate second-order SCF convergence for spin unrestricted wavefunctions
     Chem. Phys. Lett. 2000 325(1-3), 93-98
     doi.org/10.1016/s0009-2614(00)00662-x

Timings for individual modules:

Sum of individual times          ...      614.999 sec (=  10.250 min)
Startup calculation              ...        6.906 sec (=   0.115 min)   1.1 %
SCF iterations                   ...      299.191 sec (=   4.987 min)  48.6 %
Property integrals               ...        0.537 sec (=   0.009 min)   0.1 %
Property calculations            ...        0.319 sec (=   0.005 min)   0.1 %
CIS module                       ...      308.046 sec (=   5.134 min)  50.1 %
                             ****ORCA TERMINATED NORMALLY****
TOTAL RUN TIME: 0 days 0 hours 10 minutes 15 seconds 747 msec
