45
 energy: -66.261671979530 gnorm: 0.000291821008 xtb: 6.7.1 (edcfbbe)
C           -5.85226712150588        1.97646861479731       -0.06393819776904
C           -5.30784936585934        0.65092089053236        0.47745100867864
C           -5.66568503854906        0.56053111538396        1.96872985137849
C           -5.98294319800689       -0.49659712678508       -0.28968962270933
C           -3.80173757549054        0.52510566238815        0.31688421435202
C           -3.14973077447246       -0.61038540772284        0.79754782770836
C           -1.78640814461751       -0.76791559706004        0.66976656939188
C           -1.01261034272319        0.20501092692540        0.03446908150856
C           -1.65480842879546        1.34559595923657       -0.44300957430787
C           -3.02065285784136        1.49906099658870       -0.29868342152680
C            0.43175581596186       -0.00395518631048       -0.10399374319242
O            0.96984183086002       -0.83655907126850        0.77936418301698
C            1.17623119187269        0.58277816692629       -1.09292612476302
C            2.58280542832027        0.33337490167213       -1.22296400960442
O            3.19928296980931       -0.39634270820377       -0.41583268554743
C            3.31897996902533        0.97189885304344       -2.33444968525154
C            2.71085036789462        1.40879936213831       -3.51434292128252
C            3.46062985895309        1.97933415053126       -4.51646168270132
C            4.84346587216241        2.13929143130702       -4.37500137781013
O            5.48022538017591        2.71937825950411       -5.42127030863286
C            6.88409175209655        2.88529432757505       -5.36481837839523
C            5.45983839248400        1.69855699035425       -3.20574285733901
C            4.70011521489140        1.11747932738280       -2.21079349094085
H           -6.92948938796210        2.01093073943027        0.08455455714848
H           -5.65819967823361        2.07470642471514       -1.12942853306888
H           -5.41378617360295        2.82231765707985        0.46064477999036
H           -5.36991104936381       -0.39471810406948        2.39255335572009
H           -5.16523583826291        1.35069002812090        2.52454374784134
H           -6.73959596741717        0.67247867529137        2.10026649895352
H           -5.67159334248603       -1.46508885071701        0.09178548709886
H           -5.72498086720992       -0.44636579683978       -1.34564204982800
H           -7.06389911318968       -0.42272012990306       -0.19421957370201
H           -3.71246810384923       -1.39272940577952        1.28321648085458
H           -1.30218244241281       -1.65452479810050        1.05055731920583
H           -1.08304115239607        2.13407158304581       -0.90750665277081
H           -3.47085107654537        2.40202943582153       -0.67644277118618
H            1.94665039199741       -0.89962117048747        0.57090442259444
H            0.69877556929465        1.24308458901694       -1.79104567837532
H            1.65180285138512        1.27558401643873       -3.66787279261192
H            3.00166832202495        2.31142913937386       -5.43449731211014
H            7.15661763158506        3.35327995508953       -6.30888622587710
H            7.17341278537989        3.53704991099240       -4.53583703053106
H            7.39314069409595        1.92191742507913       -5.27287333764688
H            6.52369389198987        1.79993279858357       -3.06377621621948
H            5.17296135853576        0.76756278888127       -1.30428828973928
