
                                 *****************
                                 * O   R   C   A *
                                 *****************

                                            #,                                       
                                            ###                                      
                                            ####                                     
                                            #####                                    
                                            ######                                   
                                           ########,                                 
                                     ,,################,,,,,                         
                               ,,#################################,,                 
                          ,,##########################################,,             
                       ,#########################################, ''#####,          
                    ,#############################################,,   '####,        
                  ,##################################################,,,,####,       
                ,###########''''           ''''###############################       
              ,#####''   ,,,,##########,,,,          '''####'''          '####       
            ,##' ,,,,###########################,,,                        '##       
           ' ,,###''''                  '''############,,,                           
         ,,##''                                '''############,,,,        ,,,,,,###''
      ,#''                                            '''#######################'''  
     '                                                          ''''####''''         
             ,#######,   #######,   ,#######,      ##                                
            ,#'     '#,  ##    ##  ,#'     '#,    #''#        ,####,    ,#,          
            ##       ##  ##   ,#'  ##            #'  '#       #'       ,# #          
            ##       ##  #######   ##           ,######,      #####,      #          
            '#,     ,#'  ##    ##  '#,     ,#' ,#      #,     #,   #      #          
             '#######'   ##     ##  '#######'  #'      '#     '####' #    #          



                #########################################################
                #                        -***-                          #
                #          Department of theory and spectroscopy        #
                #                                                       #
                #                      Frank Neese                      #
                #                                                       #
                #     Directorship, Architecture, Infrastructure        #
                #                    SHARK, DRIVERS                     #
                #        Core code/Algorithms in most modules           #
                #                                                       #
                #        Max Planck Institute fuer Kohlenforschung      #
                #                Kaiser Wilhelm Platz 1                 #
                #                 D-45470 Muelheim/Ruhr                 #
                #                      Germany                          #
                #                                                       #
                #                  All rights reserved                  #
                #                        -***-                          #
                #########################################################


                         Program Version 6.1.1  -  RELEASE   -


 With contributions from (in alphabetic order):
[Max-Planck-Institut fuer Kohlenforschung]                               
  Daniel Aravena         : Magnetic Suceptibility                        
  Michael Atanasov       : Ab Initio Ligand Field Theory (pilot matlab implementation)
  Alexander A. Auer      : GIAO ZORA, VPT2 properties, NMR spectrum      
  Ute Becker             : All parallelization in ORCA, NUMFREQ, NUMCALC 
  Giovanni Bistoni       : ED, misc. LED, open-shell LED, HFLD           
  Dmytro Bykov           : pre 5.0 version of the SCF Hessian            
  Marcos Casanova-Páez   : Triplet and SCS-CIS(D). UHF-(DLPNO)-IP/EA/STEOM-CCSD. UHF-CVS-IP/STEOM-CCSD   
  Vijay G. Chilkuri      : MRCI spin determinant printing, contributions to CSF-ICE 
  Pauline Colinet        : FMM embedding                                 
  Dipayan Datta          : RHF DLPNO-CCSD density                        
  Achintya Kumar Dutta   : EOM-CC, STEOM-CC                              
  Nicolas Foglia         : Exact transition moments, OPA infrastructure, MCD improvements    
  Dmitry Ganyushin       : Spin-Orbit,Spin-Spin,Magnetic field MRCI      
  Miquel Garcia-Rates    : C-PCM and meta-GGA Hessian, CCSD/C-PCM, Gaussian charge scheme 
  Tiago L. C. Gouveia    : GS-ROHF, GS-ROCIS                             
  Yang Guo               : DLPNO-NEVPT2, F12-NEVPT2, CIM, IAO-localization        
  Andreas Hansen         : Spin unrestricted coupled pair/coupled cluster methods 
  Ingolf Harden          : AUTO-CI MPn and infrastructure                
  Benjamin Helmich-Paris : MC-RPA, TRAH-(SCF,CASSCF), AVAS, COSX integrals, SCF dyn. polar., MC-PDFT, srDFT 
  Lee Huntington         : MR-EOM, pCC                                   
  Robert Izsak           : Overlap fitted RIJCOSX, COSX-SCS-MP3, EOM     
  Riya Kayal             : Wick's Theorem for AUTO-CI, AUTO-CI UHF-CCSDT 
  Emily Kempfer          : AUTO-CI RHF CISDT and CCSDT, approximate NEVPT4
  Christian Kollmar      : KDIIS, OOCD, Brueckner-CCSD(T), CCSD density, CASPT2, CASPT2-K, improved NEVPT2 
  Axel Koslowski         : Symmetry handling                             
  Simone Kossmann        : meta-GGA functionals, TD-DFT gradient, OOMP2, (MP2 Hessian; deprecated post 5.0) 
  Lucas Lang             : DCDCAS, Hyperfine gauge corrections, ICE-SOC+SSC
  Marvin Lechner         : AUTO-CI (C++ implementation), FIC-MRCC        
  Spencer Leger          : CASSCF response                               
  Dagmar Lenk            : GEPOL surface, SMD, ORCA-2-JSON               
  Dimitrios Liakos       : Extrapolation schemes; Compound Job, Property file
  Dimitrios Manganas     : Further ROCIS development; embedding schemes. LFT, Crystal Embedding 
  Dimitrios Pantazis     : SARC Basis sets                               
  Anastasios Papadopoulos: AUTO-CI, single reference methods and gradients 
  Taras Petrenko         : pre 6.0 DFT Hessian and TD-DFT gradient,  ECA, NRVS 
  Petra Pikulova         : Analytic Raman intensities                    
  Peter Pinski           : DLPNO-MP2, DLPNO-MP2 Gradient                 
  Shashank Vittal Rao    : ES-AILFT, MagRelax                            
  Christoph Reimann      : Effective Core Potentials                     
  Marius Retegan         : Local ZFS, SOC                                
  Christoph Riplinger    : Optimizer, TS searches, QM/MM, DLPNO-CCSD(T), (RO)-DLPNO pert. Triples 
  Michael Roemelt        : Original ROCIS implementation, recursive CI coupling coefficients
  Masaaki Saitow         : Open-shell DLPNO-CCSD energy and density      
  Barbara Sandhoefer     : DKH picture change effects                    
  Yorick L. A. Schmerwitz: GMF and freeze-and-release deltaSCF, NEB S-IDPP initial path                    
  Kantharuban Sivalingam : CASSCF convergence/infrastructure, NEVPT2, NEVPT3, NEVPT4(SD), FIC-MRCI and CEPA variants
  Bernardo de Souza      : ESD, SOC TD-DFT                               
  Georgi L. Stoychev     : AutoAux, RI-MP2 NMR, DLPNO-MP2 response, X2C  
  Van Anh Tran           : RI-MP2 g-tensors                              
  Willem Van den Heuvel  : Paramagnetic NMR                              
  Zikuan Wang            : NOTCH, Electric field optimization            
  Frank Wennmohs         : Technical directorship and infrastructure     
  Hang Xu                : AUTO-CI-Response properties                   
                                                                         
[FACCTs GmbH]                                                            
  Markus Bursch, Nicolas Foglia, Miquel Garcia-Rates, Ingolf Harden, Hagen Neugebauer, Anastasios Papadopoulos, 
  Christoph Riplinger, Bernardo de Souza, Georgi L. Stoychev                                                    
                                                                 
  APM, various basis sets, CI-OPT, improved COSX, DLPNO-Multilevel,           
  DOCKER, DRACO, updates on ESD, Fragmentator, GOAT, IRC, LR-CPCM, L-BFGS, MBIS, meta-GGA TD-DFT gradient, ML-optimized integration grids, 
  MM, NACMEs, nearIR, NEB, NEB-TS, NL-DFT gradient (VV10), 2- and 3-layer-ONIOM, interface openCOSMO-RS, QMMM,   
  Crystal-QMMM, RESP, rigid body optimization, SF, symmetry and pop. for TD-DFT, various functionals, SOLVATOR                                   
                                                                         
[Other institutions]                                                     
  V. Asgeirsson          : NEB                                           
  Christoph Bannwarth    : sTDA-DFT, sTD-DFT, PBEh-3c, B97-3c, D3        
  Giovanni Bistoni       : ETS/NOCV, ADLD/ADEX, COVALED                  
  Martin Brehm           : Molecular dynamics                            
  Ronald Cardenas        : ETS/NOCV                                      
  Martina Colucci        : COVALED                                       
  Sebastian Ehlert       : rSCAN, r2SCAN, r2SCAN-3c, D4, dhf basis sets  
  Marvin Friede          : D4 for Fr, Ra, Ac-Lr                          
  Lars Goerigk           : TD-DFT with DH, B97 family of functionals     
  Stefan Grimme          : VdW corrections, initial TS optimization, DFT functionals, gCP, sTDA/sTD-DF 
  Waldemar Hujo          : DFT-NL                                        
  H. Jonsson             : NEB                                           
  Holger Kruse           : gCP                                           
  Marcel Mueller         : wB97X-3c, vDZP basis set                      
  Hagen Neugebauer       : wr2SCAN, Native XTB                           
  Gianluca Regni         : ADLD/ADEX                                     
  Tobias Risthaus        : pre 6.0 range-separated hybrid DFT and stability analysis
  Lukas Wittmann         : regularized MP2, r2SCAN double-hybrids, wr2SCAN        
                                                                         
We gratefully acknowledge several colleagues who have allowed us to      
interface, adapt or use parts of their codes:                            
  Ed Valeev, F. Pavosevic, A. Kumar             : LibInt (2-el integral package), F12 methods 
  Garnet Chan, S. Sharma, J. Yang, R. Olivares  : DMRG                   
  Ulf Ekstrom                                   : XCFun DFT Library      
  Mihaly Kallay                                 : mrcc  (arbitrary order and MRCC methods)
  Frank Weinhold                                : gennbo (NPA and NBO analysis)           
  Simon Mueller                                 : openCOSMO-RS                            
  Christopher J. Cramer and Donald G. Truhlar   : smd solvation model                     
  S Lehtola, MJT Oliveira, MAL Marques          : LibXC Library                           
  Liviu Ungur et al                             : ANISO software                          


 Your calculation uses the libint2 library for the computation of 2-el integrals
 For citations please refer to: http://libint.valeyev.net

 Your ORCA version has been built with support for libXC version: 7.0.0
 For citations please refer to: https://libxc.gitlab.io

 This ORCA versions uses:
   CBLAS   interface :  Fast vector & matrix operations
   LAPACKE interface :  Fast linear algebra routines
   Shared memory     :  Shared parallel matrices


  ***********************************
  * Starting time: Wed Jul 22 10:46:22 2026
  * Host name:     DESKTOP-19Q153E
  * Process ID:    14528
  * Working dir.:  C:\Users\ysm04\Documents\etc\uv_vis\calculations\02_tddft_orca\diketo\diketo_c000\camb3lyp_def2svp\none\dftopt22
  ***********************************

NOTE: MaxCore=2500 MB was set to SCF,MP2,MDCI,CIPSI,MRCI,RASCI and CIS
      => If you want to overwrite this, your respective input block should be placed after the MaxCore statement
XCFun DFT library Copyright 2009-2010 Ulf Ekstrom and contributors.
See http://admol.org/xcfun for more information.
This is free software; see the source code for copying conditions.
There is ABSOLUTELY NO WARRANTY; not even for MERCHANTABILITY or FITNESS FOR A PARTICULAR PURPOSE.
For details see the documentation.
Scientific users of this library should cite U. Ekstrom, L. Visscher, R. Bast, A. J. Thorvaldsen and K. Ruud;
J.Chem.Theor.Comp. 2010, DOI: 10.1021/ct100117s
XCFun Version 0.99 

================================================================================

----- Orbital basis set information -----
Your calculation utilizes the basis: def2-SVP
   F. Weigend and R. Ahlrichs, Phys. Chem. Chem. Phys. 7, 3297 (2005).

----- AuxJ basis set information -----
Your calculation utilizes the auxiliary basis: def2/J
   H-Rn: F. Weigend, Phys. Chem. Chem. Phys. 8, 1057 (2006).
   Fr-Lr: K. Eichkorn, F. Weigend, O. Treutler, R. Ahlrichs; Theor. Chem. Acc. 97, 119 (1997).

================================================================================
                                        WARNINGS
                       Please study these warnings very carefully!
================================================================================


WARNING: CIS/ROCIS methods need fully converged wavefunctions
  ===> : Setting SCFConvForced true
         You can overwrite this default with %scf ConvForced false 


================================================================================
                                       INPUT FILE
================================================================================
NAME = td.inp
|  1> # diketo / diketo_c000 / camb3lyp_def2svp / solvent=none
|  2> ! CAM-B3LYP def2-SVP RIJCOSX def2/J TightSCF
|  3> %pal nprocs 4 end
|  4> %maxcore 2500
|  5> %scf
|  6>   MaxIter 300
|  7> end
|  8> %tddft
|  9>   nroots 22
| 10>   tda    true
| 11>   maxdim 5
| 12> end
| 13> * xyz 0 1
| 14> C     -5.4709956342     1.7597022103     0.4418989051
| 15> C     -4.8664773089     0.4913451308    -0.1878447721
| 16> C     -5.7705041695    -0.7110893324     0.1757865928
| 17> C     -4.8454730881     0.6722758927    -1.7246188114
| 18> C     -3.4354089581     0.2174585406     0.3100588498
| 19> C     -2.7281071581    -0.9065887830    -0.1630458037
| 20> C     -1.4354509394    -1.1972741243     0.2698852106
| 21> C     -0.7880196994    -0.3590885201     1.1981369335
| 22> C     -1.4817396235     0.7696408148     1.6694928640
| 23> C     -2.7770801470     1.0493825999     1.2366962844
| 24> C      0.5928257391    -0.6102065791     1.7060899258
| 25> O      1.1343245856     0.1701150436     2.4752346914
| 26> C      1.3378235909    -1.8745842932     1.2579328986
| 27> C      1.9572976155    -1.7790283732    -0.1453601734
| 28> O      1.3904063024    -2.3104624028    -1.0908331591
| 29> C      3.2375291275    -1.0470979578    -0.3245145515
| 30> C      3.8158819200    -1.0094048510    -1.6147045411
| 31> C      5.0101041286    -0.3480372455    -1.8445697989
| 32> C      5.6734506973     0.3091296857    -0.7837841045
| 33> O      6.8283245304     0.9245894010    -1.0990022437
| 34> C      7.5599401126     1.6145588329    -0.0923216434
| 35> C      5.1091432373     0.2866773004     0.5050739746
| 36> C      3.9073569454    -0.3892278917     0.7235115339
| 37> H     -5.5403651380     1.6808533615     1.5385361778
| 38> H     -4.8840930037     2.6596143528     0.1984592367
| 39> H     -6.4905916119     1.9124446070     0.0540685529
| 40> H     -5.4198305432    -1.6449109767    -0.2902760832
| 41> H     -6.8004263266    -0.5280173467    -0.1725183434
| 42> H     -5.8021645117    -0.8652560145     1.2667966147
| 43> H     -4.2110259918     1.5262024665    -2.0132539663
| 44> H     -4.4648740354    -0.2239851248    -2.2382960564
| 45> H     -5.8655535197     0.8646712744    -2.0960035150
| 46> H     -3.1948424217    -1.5777290437    -0.8875030938
| 47> H     -0.9230840956    -2.0694764533    -0.1388465157
| 48> H     -0.9868756500     1.4271985667     2.3874082024
| 49> H     -3.2758285752     1.9338653878     1.6336574080
| 50> H      2.1184149818    -2.0609215114     2.0065553395
| 51> H      0.6533607624    -2.7323197940     1.2401140420
| 52> H      3.3009752769    -1.5160974129    -2.4334821026
| 53> H      5.4616045161    -0.3188656008    -2.8390355606
| 54> H      8.4480255871     2.0284595094    -0.5870827703
| 55> H      6.9671467592     2.4373651349     0.3412406609
| 56> H      7.8764222639     0.9309161920     0.7132505205
| 57> H      5.5968919371     0.7895023807     1.3403217329
| 58> H      3.4815615337    -0.3762990740     1.7279518780
| 59> *
| 60> 
| 61>                          ****END OF INPUT****
================================================================================

                       ****************************
                       * Single Point Calculation *
                       ****************************

---------------------------------
CARTESIAN COORDINATES (ANGSTROEM)
---------------------------------
  C     -5.470996    1.759702    0.441899
  C     -4.866477    0.491345   -0.187845
  C     -5.770504   -0.711089    0.175787
  C     -4.845473    0.672276   -1.724619
  C     -3.435409    0.217459    0.310059
  C     -2.728107   -0.906589   -0.163046
  C     -1.435451   -1.197274    0.269885
  C     -0.788020   -0.359089    1.198137
  C     -1.481740    0.769641    1.669493
  C     -2.777080    1.049383    1.236696
  C      0.592826   -0.610207    1.706090
  O      1.134325    0.170115    2.475235
  C      1.337824   -1.874584    1.257933
  C      1.957298   -1.779028   -0.145360
  O      1.390406   -2.310462   -1.090833
  C      3.237529   -1.047098   -0.324515
  C      3.815882   -1.009405   -1.614705
  C      5.010104   -0.348037   -1.844570
  C      5.673451    0.309130   -0.783784
  O      6.828325    0.924589   -1.099002
  C      7.559940    1.614559   -0.092322
  C      5.109143    0.286677    0.505074
  C      3.907357   -0.389228    0.723512
  H     -5.540365    1.680853    1.538536
  H     -4.884093    2.659614    0.198459
  H     -6.490592    1.912445    0.054069
  H     -5.419831   -1.644911   -0.290276
  H     -6.800426   -0.528017   -0.172518
  H     -5.802165   -0.865256    1.266797
  H     -4.211026    1.526202   -2.013254
  H     -4.464874   -0.223985   -2.238296
  H     -5.865554    0.864671   -2.096004
  H     -3.194842   -1.577729   -0.887503
  H     -0.923084   -2.069476   -0.138847
  H     -0.986876    1.427199    2.387408
  H     -3.275829    1.933865    1.633657
  H      2.118415   -2.060922    2.006555
  H      0.653361   -2.732320    1.240114
  H      3.300975   -1.516097   -2.433482
  H      5.461605   -0.318866   -2.839036
  H      8.448026    2.028460   -0.587083
  H      6.967147    2.437365    0.341241
  H      7.876422    0.930916    0.713251
  H      5.596892    0.789502    1.340322
  H      3.481562   -0.376299    1.727952

----------------------------
CARTESIAN COORDINATES (A.U.)
----------------------------
  NO LB      ZA    FRAG     MASS         X           Y           Z
   0 C     6.0000    0    12.011  -10.338683    3.325355    0.835068
   1 C     6.0000    0    12.011   -9.196309    0.928508   -0.354975
   2 C     6.0000    0    12.011  -10.904673   -1.343764    0.332189
   3 C     6.0000    0    12.011   -9.156617    1.270417   -3.259057
   4 C     6.0000    0    12.011   -6.491982    0.410937    0.585926
   5 C     6.0000    0    12.011   -5.155375   -1.713205   -0.308112
   6 C     6.0000    0    12.011   -2.712609   -2.262520    0.510009
   7 C     6.0000    0    12.011   -1.489141   -0.678579    2.264151
   8 C     6.0000    0    12.011   -2.800082    1.454410    3.154884
   9 C     6.0000    0    12.011   -5.247921    1.983046    2.337017
  10 C     6.0000    0    12.011    1.120278   -1.153123    3.224043
  11 O     8.0000    0    15.999    2.143563    0.321471    4.677516
  12 C     6.0000    0    12.011    2.528120   -3.542451    2.377149
  13 C     6.0000    0    12.011    3.698756   -3.361876   -0.274691
  14 O     8.0000    0    15.999    2.627487   -4.366141   -2.061376
  15 C     6.0000    0    12.011    6.118043   -1.978728   -0.613244
  16 C     6.0000    0    12.011    7.210972   -1.907499   -3.051349
  17 C     6.0000    0    12.011    9.467725   -0.657695   -3.485732
  18 C     6.0000    0    12.011   10.721268    0.584170   -1.481137
  19 O     8.0000    0    15.999   12.903663    1.747221   -2.076813
  20 C     6.0000    0    12.011   14.286216    3.051074   -0.174463
  21 C     6.0000    0    12.011    9.654881    0.541742    0.954451
  22 C     6.0000    0    12.011    7.383835   -0.735534    1.367239
  23 H     1.0000    0     1.008  -10.469773    3.176353    2.907412
  24 H     1.0000    0     1.008   -9.229598    5.025943    0.375034
  25 H     1.0000    0     1.008  -12.265441    3.613997    0.102175
  26 H     1.0000    0     1.008  -10.241995   -3.108431   -0.548542
  27 H     1.0000    0     1.008  -12.850943   -0.997808   -0.326012
  28 H     1.0000    0     1.008  -10.964502   -1.635097    2.393899
  29 H     1.0000    0     1.008   -7.957686    2.884105   -3.804499
  30 H     1.0000    0     1.008   -8.437389   -0.423271   -4.229767
  31 H     1.0000    0     1.008  -11.084290    1.633992   -3.960873
  32 H     1.0000    0     1.008   -6.037377   -2.981476   -1.677138
  33 H     1.0000    0     1.008   -1.744376   -3.910744   -0.262382
  34 H     1.0000    0     1.008   -1.864925    2.697014    4.511548
  35 H     1.0000    0     1.008   -6.190419    3.654476    3.087165
  36 H     1.0000    0     1.008    4.003224   -3.894577    3.791840
  37 H     1.0000    0     1.008    1.234673   -5.163336    2.343476
  38 H     1.0000    0     1.008    6.237939   -2.865009   -4.598615
  39 H     1.0000    0     1.008   10.320937   -0.602569   -5.365000
  40 H     1.0000    0     1.008   15.964455    3.833233   -1.109426
  41 H     1.0000    0     1.008   13.165999    4.605953    0.644851
  42 H     1.0000    0     1.008   14.884281    1.759177    1.347848
  43 H     1.0000    0     1.008   10.576593    1.491943    2.532841
  44 H     1.0000    0     1.008    6.579198   -0.711102    3.265356

--------------------------------
INTERNAL COORDINATES (ANGSTROEM)
--------------------------------
 C      0   0   0     0.000000000000     0.00000000     0.00000000
 C      1   0   0     1.539723736816     0.00000000     0.00000000
 C      2   1   0     1.547688913353   108.33476575     0.00000000
 C      2   1   3     1.547530796385   108.37129901   118.59940846
 C      2   1   3     1.539765730770   112.28227729   239.33431579
 C      5   2   1     1.409817802107   119.97268463   179.95177331
 C      6   5   2     1.393874933605   121.82382971   180.53412886
 C      7   6   5     1.408322966753   120.45988924   359.56297329
 C      8   7   6     1.406219633548   118.15538841     0.00000000
 C      9   8   7     1.394085871625   121.02315754     0.32898634
 C      8   7   6     1.492585222682   123.33125175   179.91257713
 O     11   8   7     1.222172862595   121.10748753   177.34641181
 C     11   8   7     1.534443718136   119.23591935   357.01583826
 C     13  11   8     1.536915888045   114.27614114    79.19638954
 O     14  13  11     1.223808422660   119.45187761   258.63607174
 C     14  13  11     1.485533960735   119.21622354    78.91077396
 C     16  14  13     1.414391364565   118.39413502   177.84007316
 C     17  16  14     1.384345271188   121.12752276   180.25060782
 C     18  17  16     1.413210294016   120.16207934   359.80708003
 O     19  18  17     1.346063411143   116.07582349   179.94207193
 C     20  19  18     1.422928321489   119.81269183   179.80158331
 C     19  18  17     1.407161030969   119.46277259   359.91095120
 C     22  19  18     1.396013283396   119.75377208     0.37400162
 H      1   2   3     1.101654472550   111.89449973    59.76033966
 H      1   2   3     1.101616736464   111.92386656   181.37542748
 H      1   2   3     1.101507412403   109.48998342   300.57479129
 H      3   2   1     1.101003757262   111.92865156   177.03387229
 H      3   2   1     1.102529514442   110.02418532    57.28225347
 H      3   2   1     1.102303320790   110.97621471   297.80822367
 H      4   2   1     1.102281254531   111.00307734    61.84608440
 H      4   2   1     1.100910424348   111.89210795   182.61584585
 H      4   2   1     1.102500189524   110.02072626   302.35115121
 H      6   5   2     1.092295482459   119.87317115     0.40437587
 H      7   6   5     1.091017098593   119.07015032   181.04966139
 H      9   8   7     1.092096599419   118.69187039   180.17127068
 H     10   9   8     1.090246729127   118.34740248   179.74505562
 H     13  11   8     1.097488058000   106.61882802   201.30456884
 H     13  11   8     1.097504926905   110.23847682   319.21850034
 H     17  16  14     1.091907916726   118.60834640     0.17555177
 H     18  17  16     1.092550106842   121.35866484   179.82933041
 H     21  20  19     1.097632977236   106.25755671   180.15459783
 H     21  20  19     1.102900921278   111.31587760   299.07650830
 H     21  20  19     1.102939129689   111.32809533    61.22307793
 H     22  19  18     1.090124154984   120.99685152   180.31328323
 H     23  22  19     1.091040462956   118.31268435   181.09360019

---------------------------
INTERNAL COORDINATES (A.U.)
---------------------------
 C      0   0   0     0.000000000000     0.00000000     0.00000000
 C      1   0   0     2.909656184480     0.00000000     0.00000000
 C      2   1   0     2.924708186744   108.33476575     0.00000000
 C      2   1   3     2.924409388976   108.37129901   118.59940846
 C      2   1   3     2.909735541553   112.28227729   239.33431579
 C      5   2   1     2.664169544710   119.97268463   179.95177331
 C      6   5   2     2.634041889452   121.82382971   180.53412886
 C      7   6   5     2.661344715274   120.45988924   359.56297329
 C      8   7   6     2.657369991548   118.15538841     0.00000000
 C      9   8   7     2.634440504541   121.02315754     0.32898634
 C      8   7   6     2.820577302407   123.33125175   179.91257713
 O     11   8   7     2.309571998615   121.10748753   177.34641181
 C     11   8   7     2.899678395194   119.23591935   357.01583826
 C     13  11   8     2.904350119277   114.27614114    79.19638954
 O     14  13  11     2.312662759214   119.45187761   258.63607174
 C     14  13  11     2.807252348429   119.21622354    78.91077396
 C     16  14  13     2.672812325212   118.39413502   177.84007316
 C     17  16  14     2.616033437335   121.12752276   180.25060782
 C     18  17  16     2.670580425328   120.16207934   359.80708003
 O     19  18  17     2.543691205951   116.07582349   179.94207193
 C     20  19  18     2.688944835814   119.81269183   179.80158331
 C     19  18  17     2.659148974858   119.46277259   359.91095120
 C     22  19  18     2.638082784936   119.75377208     0.37400162
 H      1   2   3     2.081825247329   111.89449973    59.76033966
 H      1   2   3     2.081753936461   111.92386656   181.37542748
 H      1   2   3     2.081547343926   109.48998342   300.57479129
 H      3   2   1     2.080595573644   111.92865156   177.03387229
 H      3   2   1     2.083478836860   110.02418532    57.28225347
 H      3   2   1     2.083051392805   110.97621471   297.80822367
 H      4   2   1     2.083009693618   111.00307734    61.84608440
 H      4   2   1     2.080419199996   111.89210795   182.61584585
 H      4   2   1     2.083423420797   110.02072626   302.35115121
 H      6   5   2     2.064139319166   119.87317115     0.40437587
 H      7   6   5     2.061723523767   119.07015032   181.04966139
 H      9   8   7     2.063763484688   118.69187039   180.17127068
 H     10   9   8     2.060267736454   118.34740248   179.74505562
 H     13  11   8     2.073951864869   106.61882802   201.30456884
 H     13  11   8     2.073983742480   110.23847682   319.21850034
 H     17  16  14     2.063406926073   118.60834640     0.17555177
 H     18  17  16     2.064620489518   121.35866484   179.82933041
 H     21  20  19     2.074225722537   106.25755671   180.15459783
 H     21  20  19     2.084180694065   111.31587760   299.07650830
 H     21  20  19     2.084252897497   111.32809533    61.22307793
 H     22  19  18     2.060036104893   120.99685152   180.31328323
 H     23  22  19     2.061767676014   118.31268435   181.09360019

---------------------
BASIS SET INFORMATION
---------------------
There are 3 groups of distinct atoms

 Group   1 Type C   : 7s4p1d contracted to 3s2p1d pattern {511/31/1}
 Group   2 Type O   : 7s4p1d contracted to 3s2p1d pattern {511/31/1}
 Group   3 Type H   : 4s1p contracted to 2s1p pattern {31/1}

Atom   0C    basis set group =>   1
Atom   1C    basis set group =>   1
Atom   2C    basis set group =>   1
Atom   3C    basis set group =>   1
Atom   4C    basis set group =>   1
Atom   5C    basis set group =>   1
Atom   6C    basis set group =>   1
Atom   7C    basis set group =>   1
Atom   8C    basis set group =>   1
Atom   9C    basis set group =>   1
Atom  10C    basis set group =>   1
Atom  11O    basis set group =>   2
Atom  12C    basis set group =>   1
Atom  13C    basis set group =>   1
Atom  14O    basis set group =>   2
Atom  15C    basis set group =>   1
Atom  16C    basis set group =>   1
Atom  17C    basis set group =>   1
Atom  18C    basis set group =>   1
Atom  19O    basis set group =>   2
Atom  20C    basis set group =>   1
Atom  21C    basis set group =>   1
Atom  22C    basis set group =>   1
Atom  23H    basis set group =>   3
Atom  24H    basis set group =>   3
Atom  25H    basis set group =>   3
Atom  26H    basis set group =>   3
Atom  27H    basis set group =>   3
Atom  28H    basis set group =>   3
Atom  29H    basis set group =>   3
Atom  30H    basis set group =>   3
Atom  31H    basis set group =>   3
Atom  32H    basis set group =>   3
Atom  33H    basis set group =>   3
Atom  34H    basis set group =>   3
Atom  35H    basis set group =>   3
Atom  36H    basis set group =>   3
Atom  37H    basis set group =>   3
Atom  38H    basis set group =>   3
Atom  39H    basis set group =>   3
Atom  40H    basis set group =>   3
Atom  41H    basis set group =>   3
Atom  42H    basis set group =>   3
Atom  43H    basis set group =>   3
Atom  44H    basis set group =>   3
---------------------------------
AUXILIARY/J BASIS SET INFORMATION
---------------------------------
There are 3 groups of distinct atoms

 Group   1 Type C   : 12s5p4d2f1g contracted to 6s4p3d1f1g pattern {711111/2111/211/2/1}
 Group   2 Type O   : 12s5p4d2f1g contracted to 6s4p3d1f1g pattern {711111/2111/211/2/1}
 Group   3 Type H   : 5s2p1d contracted to 3s1p1d pattern {311/2/1}

Atom   0C    basis set group =>   1
Atom   1C    basis set group =>   1
Atom   2C    basis set group =>   1
Atom   3C    basis set group =>   1
Atom   4C    basis set group =>   1
Atom   5C    basis set group =>   1
Atom   6C    basis set group =>   1
Atom   7C    basis set group =>   1
Atom   8C    basis set group =>   1
Atom   9C    basis set group =>   1
Atom  10C    basis set group =>   1
Atom  11O    basis set group =>   2
Atom  12C    basis set group =>   1
Atom  13C    basis set group =>   1
Atom  14O    basis set group =>   2
Atom  15C    basis set group =>   1
Atom  16C    basis set group =>   1
Atom  17C    basis set group =>   1
Atom  18C    basis set group =>   1
Atom  19O    basis set group =>   2
Atom  20C    basis set group =>   1
Atom  21C    basis set group =>   1
Atom  22C    basis set group =>   1
Atom  23H    basis set group =>   3
Atom  24H    basis set group =>   3
Atom  25H    basis set group =>   3
Atom  26H    basis set group =>   3
Atom  27H    basis set group =>   3
Atom  28H    basis set group =>   3
Atom  29H    basis set group =>   3
Atom  30H    basis set group =>   3
Atom  31H    basis set group =>   3
Atom  32H    basis set group =>   3
Atom  33H    basis set group =>   3
Atom  34H    basis set group =>   3
Atom  35H    basis set group =>   3
Atom  36H    basis set group =>   3
Atom  37H    basis set group =>   3
Atom  38H    basis set group =>   3
Atom  39H    basis set group =>   3
Atom  40H    basis set group =>   3
Atom  41H    basis set group =>   3
Atom  42H    basis set group =>   3
Atom  43H    basis set group =>   3
Atom  44H    basis set group =>   3


           ************************************************************
           *        Program running with 4 parallel MPI-processes     *
           *              working on a common directory               *
           ************************************************************
------------------------------------------------------------------------------
                             ORCA STARTUP CALCULATIONS
                           -- RI-GTO INTEGRALS CHOSEN --
------------------------------------------------------------------------------
------------------------------------------------------------------------------
                   ___                                                        
                  /   \      - P O W E R E D   B Y -                         
                 /     \                                                     
                 |  |  |   _    _      __       _____    __    __             
                 |  |  |  | |  | |    /  \     |  _  \  |  |  /  |          
                  \  \/   | |  | |   /    \    | | | |  |  | /  /          
                 / \  \   | |__| |  /  /\  \   | |_| |  |  |/  /          
                |  |  |   |  __  | /  /__\  \  |    /   |      \           
                |  |  |   | |  | | |   __   |  |    \   |  |\   \          
                \     /   | |  | | |  |  |  |  | |\  \  |  | \   \       
                 \___/    |_|  |_| |__|  |__|  |_| \__\ |__|  \__/        
                                                                              
                      - O R C A' S   B I G   F R I E N D -                    
                                      &                                       
                       - I N T E G R A L  F E E D E R -                       
                                                                              
 v1 FN, 2020, v2 2021, v3 2022-2024                                           
------------------------------------------------------------------------------


----------------------
SHARK INTEGRAL PACKAGE
----------------------

Number of atoms                             ...     45
Number of basis functions                   ...    432
Number of shells                            ...    204
Maximum angular momentum                    ...      2
Integral batch strategy                     ... SHARK/LIBINT Hybrid
RI-J (if used) integral strategy            ... SPLIT-RIJ (Revised 2003 algorithm where possible)
Printlevel                                  ...      1
Contraction scheme used                     ... SEGMENTED contraction
Prescreening option                         ... SCHWARTZ
   Thresh                                   ... 2.500e-11
   Tcut                                     ... 2.500e-12
   Tpresel                                  ... 2.500e-12 
Coulomb Range Separation                    ... NOT USED
Exchange Range Separation                   ... Long Range
   Mu parameter                             ... 3.300e-01
   Scaling (regular/separated)              ... 1.900e-01 4.600e-01
Robust (split-)RI terms used:
  metric    (central integrals)             ... YES
  density   (r.h.s.  integrals)             ... YES
  potential (l.h.s.  integrals)             ... YES
Multipole approximations                    ... NOT USED
Finite Nucleus Model                        ... NOT USED
CABS basis                                  ... NOT available
Auxiliary Coulomb fitting basis             ... AVAILABLE
   # of basis functions in Aux-J            ...   1369
   # of shells in Aux-J                     ...    455
   Maximum angular momentum in Aux-J        ...      4
Auxiliary J/K fitting basis                 ... NOT available
Auxiliary Correlation fitting basis         ... NOT available
Auxiliary 'external' fitting basis          ... NOT available

Checking pre-screening integrals            ... done (  0.0 sec) Dimension = 204
   => SHARK Basis and OBASIS are compatible. Storing Pre-screening
Shell pair information
Shell pair cut-off parameter TPreSel        ...   2.5e-12
Total number of shell pairs                 ...     20910
Shell pairs after pre-screening             ...     12932
Total number of primitive shell pairs       ...     75056
Primitive shell pairs kept                  ...     30118
          la=0 lb=0:   4103 shell pairs
          la=1 lb=0:   4840 shell pairs
          la=1 lb=1:   1468 shell pairs
          la=2 lb=0:   1492 shell pairs
          la=2 lb=1:    886 shell pairs
          la=2 lb=2:    143 shell pairs

Checking whether 4 symmetric matrices of dimension 432 fit in memory
:Max Core in MB      =   2500.00
 MB in use           =     16.03
 MB left             =   2483.97
 MB needed           =      2.85
 Data fit in memory  = YES
Calculating RI/J V-Matrix + Cholesky decomp.... done (  0.3 sec)
Calculating Nuclear repulsion               ... done (  0.0 sec) ENN=   1772.096375593933 Eh

Diagonalization of the overlap matrix:
Smallest eigenvalue                        ... 2.680e-04
Time for diagonalization                   ...    0.042 sec
Threshold for overlap eigenvalues          ... 1.000e-07
Number of eigenvalues below threshold      ... 0
Time for construction of square roots      ...    0.036 sec
Total time needed                          ...    0.083 sec

-------------------
DFT GRID GENERATION
-------------------

General Integration Accuracy     IntAcc      ... 4.388
Radial Grid Type                 RadialGrid  ... OptM3 with GC (2021)
Angular Grid (max. ang.)         AngularGrid ... 4 (Lebedev-302)
Angular grid pruning method      GridPruning ... 4 (adaptive)
Weight generation scheme         WeightScheme... mBecke (2022)
Basis function cutoff            BFCut       ... 1.0000e-11
Integration weight cutoff        WCut        ... 1.0000e-14
Partially contracted basis set               ... off
Rotationally invariant grid construction     ... off
Angular grids for H and He will be reduced by one unit

Total number of grid points                  ...   207634
Total number of batches                      ...     3272
Average number of points per batch           ...       63
Average number of grid points per atom       ...     4614

--------------------
COSX GRID GENERATION
--------------------

GRIDX 1
-------
General Integration Accuracy     IntAcc      ... 3.816
Radial Grid Type                 RadialGrid  ... OptM3 with GC (2021)
Angular Grid (max. ang.)         AngularGrid ... 1 (Lebedev-50)
Angular grid pruning method      GridPruning ... 4 (adaptive)
Weight generation scheme         WeightScheme... mBecke (2022)
Basis function cutoff            BFCut       ... 1.0000e-11
Integration weight cutoff        WCut        ... 1.0000e-14
Partially contracted basis set               ... on
Rotationally invariant grid construction     ... off
Angular grids for H and He will be reduced by one unit

Total number of grid points                  ...    26440
Total number of batches                      ...      231
Average number of points per batch           ...      114
Average number of grid points per atom       ...      588
UseSFitting                                  ... on

GRIDX 2
-------
General Integration Accuracy     IntAcc      ... 4.020
Radial Grid Type                 RadialGrid  ... OptM3 with GC (2021)
Angular Grid (max. ang.)         AngularGrid ... 2 (Lebedev-110)
Angular grid pruning method      GridPruning ... 4 (adaptive)
Weight generation scheme         WeightScheme... mBecke (2022)
Basis function cutoff            BFCut       ... 1.0000e-11
Integration weight cutoff        WCut        ... 1.0000e-14
Partially contracted basis set               ... on
Rotationally invariant grid construction     ... off
Angular grids for H and He will be reduced by one unit

Total number of grid points                  ...    56683
Total number of batches                      ...      469
Average number of points per batch           ...      120
Average number of grid points per atom       ...     1260
UseSFitting                                  ... on

GRIDX 3
-------
General Integration Accuracy     IntAcc      ... 4.338
Radial Grid Type                 RadialGrid  ... OptM3 with GC (2021)
Angular Grid (max. ang.)         AngularGrid ... 3 (Lebedev-194)
Angular grid pruning method      GridPruning ... 4 (adaptive)
Weight generation scheme         WeightScheme... mBecke (2022)
Basis function cutoff            BFCut       ... 1.0000e-11
Integration weight cutoff        WCut        ... 1.0000e-14
Partially contracted basis set               ... on
Rotationally invariant grid construction     ... off
Angular grids for H and He will be reduced by one unit

Total number of grid points                  ...   123758
Total number of batches                      ...      994
Average number of points per batch           ...      124
Average number of grid points per atom       ...     2750
UseSFitting                                  ... on
Grids setup in   5.8 sec
Initializing property integral containers    ... done (  0.1 sec)

SHARK setup successfully completed in   6.7 seconds

Maximum memory used throughout the entire STARTUP-calculation: 58.9 MB


           ************************************************************
           *        Program running with 4 parallel MPI-processes     *
           *              working on a common directory               *
           ************************************************************
-------------------------------------------------------------------------------
                                 ORCA GUESS
                   Start orbitals & Density for SCF / CASSCF
-------------------------------------------------------------------------------

------------
SCF SETTINGS
------------
Hamiltonian:
 Density Functional     Method          .... DFT(GTOs)
 Exchange Functional    Exchange        .... WB88
 Correlation Functional Correlation     .... LYP
 LDA part of GGA corr.  LDAOpt          .... VWN-5
 Gradients option       PostSCFGGA      .... off
 Hybrid DFT is turned on
   Fraction HF Exchange ScalHFX         ....  0.190000
   Scaling of DF-GGA-X  ScalDFX         ....  0.350000
   Scaling of DF-GGA-C  ScalDFC         ....  0.810000
   Scaling of DF-LDA-C  ScalLDAC        ....  1.000000
   Perturbative correction              ....  0.000000
 Long-range corrected/Screened/Range-Separated Hybrid DFT is turned on
   Amount of maximum screened exact exchange              ....  0.460000
   Range separation parameter mu (erf(mu*r12)/r12)        ....  0.330000
 RI-approximation to the Coulomb term is turned on
   Number of AuxJ basis functions       .... 1369
   RIJ-COSX (HFX calculated with COS-X)).... on


General Settings:
 Integral files         IntName         .... td
 Hartree-Fock type      HFTyp           .... RHF
 Total Charge           Charge          ....    0
 Multiplicity           Mult            ....    1
 Number of Electrons    NEL             ....  166
 Basis Dimension        Dim             ....  432
 Nuclear Repulsion      ENuc            ....   1772.0963755939 Eh

Convergence Acceleration:
 AO-DIIS                CNVDIIS         .... on
   Start iteration      DIISMaxIt       ....    12
   Startup error        DIISStart       ....  0.200000
   # of expansion vecs  DIISMaxEq       ....     5
   Bias factor          DIISBfac        ....   1.050
   Max. coefficient     DIISMaxC        ....  10.000
 MO-DIIS                CNVKDIIS        .... off
 Trust-Rad. Augm. Hess. CNVTRAH         .... auto
   Auto Start mean grad. ratio tolernc. ....  1.125000
   Auto Start start iteration           ....    50
   Auto Start num. interpolation iter.  ....    10
   Max. Number of Micro iterations      ....    24
   Max. Number of Macro iterations      .... Maxiter - #DIIS iter
   Number of Davidson start vectors     ....     2
   Converg. threshold    (grad. norm)   ....   1.000e-05
   Grad. Scal. Fac. for Micro threshold ....   0.100
   Minimum threshold for Micro iter.    ....   1.000e-02
   NR start threshold (gradient norm)   ....   1.000e-04
   Initial trust radius                 ....   0.400
   Minimum AH scaling param. (alpha)    ....   1.000
   Maximum AH scaling param. (alpha)    .... 1000.000
   Quad. conv. algorithm                .... NR
   White noise on init. David. guess    .... on
   Maximum white noise                  ....   0.010
   Pseudo random numbers                .... off
   Inactive MOs                         .... canonical
   Orbital update algorithm             .... Taylor
   Preconditioner                       .... Diag
   Full preconditioner red. dimension   ....   250
 SOSCF                 CNVSOSCF           .... on
   Start iteration     SOSCFMaxIt         ....   150
   Startup grad/error  SOSCFStart         ....  0.003300
   Hessian update      SOSCFHessUp        .... L-BFGS
   Autom. constraints  SOSCFAutoConstrain .... off
 Level Shifting         CNVShift        .... on
   Level shift para.    LevelShift      ....    0.2500
   Turn off err/grad.   ShiftErr        ....    0.0010
 Zerner damping         CNVZerner       .... off
 Static damping         CNVDamp         .... on
   Fraction old density DampFac         ....    0.7000
   Max. Damping (<1)    DampMax         ....    0.9800
   Min. Damping (>=0)   DampMin         ....    0.0000
   Turn off err/grad.   DampErr         ....    0.1000

SCF Procedure:
 Maximum # iterations   MaxIter         ....   300
 SCF integral mode      SCFMode         .... Direct
   Integral package                     .... SHARK and LIBINT hybrid scheme
 Reset frequency        DirectResetFreq ....    20
 Integral Threshold     Thresh          ....  2.500e-11 Eh
 Primitive CutOff       TCut            ....  2.500e-12 Eh

Convergence Tolerance:
 Convergence Check Mode ConvCheckMode   .... Total+1el-Energy
 Convergence forced     ConvForced      .... 1
 Energy Change          TolE            ....  1.000e-08 Eh
 1-El. energy change                    ....  1.000e-05 Eh
 Orbital Gradient       TolG            ....  1.000e-05
 Orbital Rotation angle TolX            ....  1.000e-05
 DIIS Error             TolErr          ....  5.000e-07

------------------------------
INITIAL GUESS: MODEL POTENTIAL
------------------------------
Loading Hartree-Fock densities                     ... done
Calculating cut-offs                               ... done
Initializing the effective Hamiltonian             ... done
Setting up the integral package (SHARK)            ... done
Starting the Coulomb interaction                   ... done (   0.7 sec)
Making the grid                                    ... done (   0.8 sec)
Mapping shells                                     ... done
Starting the XC term evaluation                    ... done (   0.7 sec)
  promolecular density results
     # of electrons  =    165.987023599
     EX              =   -133.167314822
     EC              =     -5.530949008
     EX+EC           =   -138.698263830
Transforming the Hamiltonian                       ... done (   0.0 sec)
Diagonalizing the Hamiltonian                      ... done (   0.0 sec)
Back transforming the eigenvectors                 ... done (   0.0 sec)
Now organizing SCF variables                       ... done
                      ------------------
                      INITIAL GUESS DONE (   2.4 sec)
                      ------------------
             **** ENERGY FILE WAS UPDATED (td.en.tmp) ****
Finished Guess after   2.8 sec
Maximum memory used throughout the entire GUESS-calculation: 22.4 MB


           ************************************************************
           *        Program running with 4 parallel MPI-processes     *
           *              working on a common directory               *
           ************************************************************

-------------------------------------------------------------------------------------------
                                      ORCA LEAN-SCF
                              memory conserving SCF solver
-------------------------------------------------------------------------------------------

----------------------------------------D-I-I-S--------------------------------------------
Iteration    Energy (Eh)           Delta-E    RMSDP     MaxDP     DIISErr   Damp  Time(sec)
-------------------------------------------------------------------------------------------
               ***  Starting incremental Fock matrix formation  ***
    1    -999.3326122000510168     0.00e+00  3.90e-03  7.15e-02  2.19e-01  0.700  33.1
    2    -999.5326590541283167    -2.00e-01  2.81e-03  5.26e-02  9.56e-02  0.700  12.4
                               ***Turning on AO-DIIS***
    3    -999.6251803230263704    -9.25e-02  1.30e-03  1.83e-02  3.95e-02  0.700  12.5
    4    -999.6807439112660632    -5.56e-02  2.52e-03  2.90e-02  2.27e-02  0.000  11.4
    5    -999.8010812184941187    -1.20e-01  2.95e-04  5.82e-03  5.77e-03  0.000  11.3
                              *** Initializing SOSCF ***
---------------------------------------S-O-S-C-F--------------------------------------
Iteration    Energy (Eh)           Delta-E    RMSDP     MaxDP     MaxGrad    Time(sec)
--------------------------------------------------------------------------------------
    6    -999.8015101052635600    -4.29e-04  1.42e-04  3.64e-03  2.94e-03    10.5
               *** Restarting incremental Fock matrix formation ***
    7    -999.8015337491290211    -2.36e-05  9.67e-05  2.53e-03  6.94e-04    27.1
    8    -999.8015582934201575    -2.45e-05  1.11e-04  3.16e-03  2.45e-04    18.4
    9    -999.8015590137076742    -7.20e-07  4.43e-05  1.33e-03  2.50e-04    19.5
   10    -999.8015635865292552    -4.57e-06  1.11e-05  2.24e-04  2.82e-05    19.0
   11    -999.8015636491406894    -6.26e-08  5.48e-06  1.19e-04  3.74e-05    17.3
   12    -999.8015637576002064    -1.08e-07  1.44e-06  3.63e-05  8.56e-06    14.3
   13    -999.8015637641449302    -6.54e-09  7.25e-07  1.66e-05  7.86e-06     9.1
                 **** Energy Check signals convergence ****

               *****************************************************
               *                     SUCCESS                       *
               *           SCF CONVERGED AFTER  13 CYCLES          *
               *****************************************************

Recomputing exchange energy using gridx3       ... done (   55.007 sec)
Old exchange energy                            :    -38.782837209 Eh
New exchange energy                            :    -38.782903875 Eh
Exchange energy change after final integration :     -0.000066666 Eh
Total energy after final integration           :   -999.801630442 Eh
             **** ENERGY FILE WAS UPDATED (td.en.tmp) ****

----------------
TOTAL SCF ENERGY
----------------

Total Energy       :       -999.80163044229676 Eh          -27205.98549 eV

Components:
Nuclear Repulsion  :       1772.09637559393309 Eh           48221.19390 eV
Electronic Energy  :      -2771.89793937043123 Eh          -75427.17757 eV
One Electron Energy:      -4876.99793220108768 Eh         -132709.86057 eV
Two Electron Energy:       2105.09999283065645 Eh           57282.68300 eV

Virial components:
Potential Energy   :      -1988.75984053871480 Eh          -54116.90651 eV
Kinetic Energy     :        988.95821009641816 Eh           26910.92102 eV
Virial Ratio       :          2.01096448791787

DFT components:
N(Alpha)           :       82.999937737739 electrons
N(Beta)            :       82.999937737739 electrons
N(Total)           :      165.999875475477 electrons
E(XC)              :     -102.964565973161 Eh       

---------------
SCF CONVERGENCE
---------------

  Last Energy change         ...    6.5447e-09  Tolerance :   1.0000e-08
  Last MAX-Density change    ...    1.6561e-05  Tolerance :   1.0000e-07
  Last RMS-Density change    ...    7.2465e-07  Tolerance :   5.0000e-09
  Last DIIS Error            ...    2.9373e-03  Tolerance :   5.0000e-07
  Last Orbital Gradient      ...    7.8614e-06  Tolerance :   1.0000e-05
  Last Orbital Rotation      ...    1.0091e-05  Tolerance :   1.0000e-05


----------------
ORBITAL ENERGIES
----------------

  NO   OCC          E(Eh)            E(eV) 
   0   2.0000     -19.248776      -523.7858 
   1   2.0000     -19.200669      -522.4768 
   2   2.0000     -19.196963      -522.3759 
   3   2.0000     -10.358106      -281.8584 
   4   2.0000     -10.355983      -281.8006 
   5   2.0000     -10.338773      -281.3323 
   6   2.0000     -10.328542      -281.0539 
   7   2.0000     -10.281979      -279.7869 
   8   2.0000     -10.278961      -279.7048 
   9   2.0000     -10.278631      -279.6958 
  10   2.0000     -10.273221      -279.5485 
  11   2.0000     -10.272665      -279.5334 
  12   2.0000     -10.271868      -279.5117 
  13   2.0000     -10.270181      -279.4658 
  14   2.0000     -10.270071      -279.4628 
  15   2.0000     -10.269465      -279.4464 
  16   2.0000     -10.267464      -279.3919 
  17   2.0000     -10.266044      -279.3533 
  18   2.0000     -10.265643      -279.3424 
  19   2.0000     -10.265490      -279.3382 
  20   2.0000     -10.255879      -279.0767 
  21   2.0000     -10.255296      -279.0608 
  22   2.0000     -10.255258      -279.0598 
  23   2.0000      -1.151500       -31.3339 
  24   2.0000      -1.113298       -30.2944 
  25   2.0000      -1.107063       -30.1247 
  26   2.0000      -0.943850       -25.6835 
  27   2.0000      -0.937871       -25.5208 
  28   2.0000      -0.898689       -24.4546 
  29   2.0000      -0.860685       -23.4204 
  30   2.0000      -0.840032       -22.8584 
  31   2.0000      -0.829142       -22.5621 
  32   2.0000      -0.822798       -22.3895 
  33   2.0000      -0.814165       -22.1545 
  34   2.0000      -0.781899       -21.2765 
  35   2.0000      -0.761610       -20.7245 
  36   2.0000      -0.759672       -20.6717 
  37   2.0000      -0.712517       -19.3886 
  38   2.0000      -0.696384       -18.9496 
  39   2.0000      -0.685339       -18.6490 
  40   2.0000      -0.673886       -18.3374 
  41   2.0000      -0.639034       -17.3890 
  42   2.0000      -0.624588       -16.9959 
  43   2.0000      -0.619775       -16.8649 
  44   2.0000      -0.611173       -16.6309 
  45   2.0000      -0.581347       -15.8193 
  46   2.0000      -0.566937       -15.4272 
  47   2.0000      -0.553060       -15.0495 
  48   2.0000      -0.552387       -15.0312 
  49   2.0000      -0.546155       -14.8616 
  50   2.0000      -0.531871       -14.4729 
  51   2.0000      -0.521501       -14.1908 
  52   2.0000      -0.518797       -14.1172 
  53   2.0000      -0.512029       -13.9330 
  54   2.0000      -0.509974       -13.8771 
  55   2.0000      -0.503874       -13.7111 
  56   2.0000      -0.499847       -13.6015 
  57   2.0000      -0.494502       -13.4561 
  58   2.0000      -0.488021       -13.2797 
  59   2.0000      -0.486744       -13.2450 
  60   2.0000      -0.474762       -12.9189 
  61   2.0000      -0.468536       -12.7495 
  62   2.0000      -0.465564       -12.6686 
  63   2.0000      -0.462026       -12.5724 
  64   2.0000      -0.455783       -12.4025 
  65   2.0000      -0.445371       -12.1191 
  66   2.0000      -0.444040       -12.0829 
  67   2.0000      -0.436593       -11.8803 
  68   2.0000      -0.432767       -11.7762 
  69   2.0000      -0.431220       -11.7341 
  70   2.0000      -0.421829       -11.4786 
  71   2.0000      -0.417436       -11.3590 
  72   2.0000      -0.398197       -10.8355 
  73   2.0000      -0.396223       -10.7818 
  74   2.0000      -0.393298       -10.7022 
  75   2.0000      -0.391833       -10.6623 
  76   2.0000      -0.383607       -10.4385 
  77   2.0000      -0.329482        -8.9657 
  78   2.0000      -0.320080        -8.7098 
  79   2.0000      -0.314447        -8.5565 
  80   2.0000      -0.313739        -8.5373 
  81   2.0000      -0.304334        -8.2813 
  82   2.0000      -0.285659        -7.7732 
  83   0.0000      -0.024790        -0.6746 
  84   0.0000      -0.003125        -0.0850 
  85   0.0000       0.031744         0.8638 
  86   0.0000       0.034315         0.9337 
  87   0.0000       0.082206         2.2369 
  88   0.0000       0.091499         2.4898 
  89   0.0000       0.098956         2.6927 
  90   0.0000       0.101892         2.7726 
  91   0.0000       0.124025         3.3749 
  92   0.0000       0.130286         3.5453 
  93   0.0000       0.135263         3.6807 
*Only the first 10 virtual orbitals were printed.

                    ********************************
                    * MULLIKEN POPULATION ANALYSIS *
                    ********************************

-----------------------
MULLIKEN ATOMIC CHARGES
-----------------------
   0 C :    0.073501
   1 C :   -0.260235
   2 C :    0.062974
   3 C :    0.063764
   4 C :    0.100551
   5 C :   -0.044652
   6 C :   -0.002746
   7 C :    0.004082
   8 C :    0.001850
   9 C :   -0.030505
  10 C :    0.042384
  11 O :   -0.190618
  12 C :    0.103895
  13 C :    0.039324
  14 O :   -0.195516
  15 C :    0.001408
  16 C :    0.001289
  17 C :   -0.019587
  18 C :    0.229871
  19 O :   -0.301997
  20 C :    0.161055
  21 C :   -0.094376
  22 C :    0.000218
  23 H :    0.015705
  24 H :    0.016363
  25 H :    0.009390
  26 H :    0.010931
  27 H :    0.009626
  28 H :    0.016914
  29 H :    0.017927
  30 H :    0.012175
  31 H :    0.009194
  32 H :   -0.012923
  33 H :    0.002104
  34 H :    0.000475
  35 H :   -0.017704
  36 H :    0.031393
  37 H :    0.032442
  38 H :    0.007911
  39 H :   -0.006907
  40 H :    0.045448
  41 H :    0.033951
  42 H :    0.032014
  43 H :   -0.018010
  44 H :    0.005647
Sum of atomic charges:    0.0000000

--------------------------------
MULLIKEN REDUCED ORBITAL CHARGES
--------------------------------
  0 C s       :     2.954425  s :     2.954425
      pz      :     0.987832  p :     2.943630
      px      :     0.982298
      py      :     0.973500
      dz2     :     0.009244  d :     0.028444
      dxz     :     0.003038
      dyz     :     0.003351
      dx2y2   :     0.006313
      dxy     :     0.006497

  1 C s       :     3.199072  s :     3.199072
      pz      :     1.020134  p :     3.010755
      px      :     0.966324
      py      :     1.024297
      dz2     :     0.012228  d :     0.050408
      dxz     :     0.008272
      dyz     :     0.008885
      dx2y2   :     0.010607
      dxy     :     0.010416

  2 C s       :     2.983265  s :     2.983265
      pz      :     0.993723  p :     2.925266
      px      :     0.972083
      py      :     0.959460
      dz2     :     0.008254  d :     0.028495
      dxz     :     0.002907
      dyz     :     0.004472
      dx2y2   :     0.007531
      dxy     :     0.005330

  3 C s       :     2.982765  s :     2.982765
      pz      :     0.932691  p :     2.924993
      px      :     0.992534
      py      :     0.999768
      dz2     :     0.007120  d :     0.028478
      dxz     :     0.004963
      dyz     :     0.006029
      dx2y2   :     0.004850
      dxy     :     0.005516

  4 C s       :     3.068705  s :     3.068705
      pz      :     0.925367  p :     2.789831
      px      :     0.933444
      py      :     0.931020
      dz2     :     0.007123  d :     0.040913
      dxz     :     0.007749
      dyz     :     0.006250
      dx2y2   :     0.009584
      dxy     :     0.010208

  5 C s       :     3.223292  s :     3.223292
      pz      :     0.930456  p :     2.787619
      px      :     0.932503
      py      :     0.924660
      dz2     :     0.004025  d :     0.033740
      dxz     :     0.006763
      dyz     :     0.005545
      dx2y2   :     0.008302
      dxy     :     0.009106

  6 C s       :     3.208492  s :     3.208492
      pz      :     0.945015  p :     2.759610
      px      :     0.917381
      py      :     0.897215
      dz2     :     0.005880  d :     0.034644
      dxz     :     0.007392
      dyz     :     0.004948
      dx2y2   :     0.007355
      dxy     :     0.009068

  7 C s       :     3.083405  s :     3.083405
      pz      :     0.989815  p :     2.874594
      px      :     0.932288
      py      :     0.952490
      dz2     :     0.006302  d :     0.037919
      dxz     :     0.006672
      dyz     :     0.006563
      dx2y2   :     0.009942
      dxy     :     0.008442

  8 C s       :     3.248328  s :     3.248328
      pz      :     0.890245  p :     2.715147
      px      :     0.901219
      py      :     0.923682
      dz2     :     0.003949  d :     0.034675
      dxz     :     0.007341
      dyz     :     0.005518
      dx2y2   :     0.008681
      dxy     :     0.009185

  9 C s       :     3.223415  s :     3.223415
      pz      :     0.977815  p :     2.773242
      px      :     0.896667
      py      :     0.898759
      dz2     :     0.005260  d :     0.033848
      dxz     :     0.007208
      dyz     :     0.004909
      dx2y2   :     0.007695
      dxy     :     0.008777

 10 C s       :     3.138679  s :     3.138679
      pz      :     0.848097  p :     2.724807
      px      :     0.946940
      py      :     0.929770
      dz2     :     0.015938  d :     0.094130
      dxz     :     0.017813
      dyz     :     0.015872
      dx2y2   :     0.025656
      dxy     :     0.018850

 11 O s       :     3.725444  s :     3.725444
      pz      :     1.328557  p :     4.447544
      px      :     1.633985
      py      :     1.485003
      dz2     :     0.004250  d :     0.017630
      dxz     :     0.002935
      dyz     :     0.004478
      dx2y2   :     0.002418
      dxy     :     0.003549

 12 C s       :     2.919635  s :     2.919635
      pz      :     0.978967  p :     2.947900
      px      :     0.961871
      py      :     1.007063
      dz2     :     0.006682  d :     0.028570
      dxz     :     0.007474
      dyz     :     0.003128
      dx2y2   :     0.003565
      dxy     :     0.007721

 13 C s       :     3.136596  s :     3.136596
      pz      :     0.970618  p :     2.729735
      px      :     0.921354
      py      :     0.837763
      dz2     :     0.031956  d :     0.094345
      dxz     :     0.021498
      dyz     :     0.015378
      dx2y2   :     0.012460
      dxy     :     0.013052

 14 O s       :     3.726000  s :     3.726000
      pz      :     1.503150  p :     4.451971
      px      :     1.571654
      py      :     1.377168
      dz2     :     0.004002  d :     0.017545
      dxz     :     0.004759
      dyz     :     0.004669
      dx2y2   :     0.002219
      dxy     :     0.001896

 15 C s       :     3.070136  s :     3.070136
      pz      :     0.913960  p :     2.891090
      px      :     0.950403
      py      :     1.026727
      dz2     :     0.010587  d :     0.037366
      dxz     :     0.009756
      dyz     :     0.007280
      dx2y2   :     0.004267
      dxy     :     0.005476

 16 C s       :     3.247266  s :     3.247266
      pz      :     0.930099  p :     2.716119
      px      :     0.893561
      py      :     0.892459
      dz2     :     0.008047  d :     0.035326
      dxz     :     0.009681
      dyz     :     0.006490
      dx2y2   :     0.005576
      dxy     :     0.005531

 17 C s       :     3.228233  s :     3.228233
      pz      :     0.849538  p :     2.759326
      px      :     0.908243
      py      :     1.001544
      dz2     :     0.006584  d :     0.032028
      dxz     :     0.009940
      dyz     :     0.005306
      dx2y2   :     0.005328
      dxy     :     0.004871

 18 C s       :     2.958171  s :     2.958171
      pz      :     0.996610  p :     2.735559
      px      :     0.832210
      py      :     0.906739
      dz2     :     0.014869  d :     0.076400
      dxz     :     0.018163
      dyz     :     0.011491
      dx2y2   :     0.016840
      dxy     :     0.015036

 19 O s       :     3.712747  s :     3.712747
      pz      :     1.594003  p :     4.572541
      px      :     1.375379
      py      :     1.603159
      dz2     :     0.003204  d :     0.016709
      dxz     :     0.004301
      dyz     :     0.003214
      dx2y2   :     0.003063
      dxy     :     0.002928

 20 C s       :     3.012506  s :     3.012506
      pz      :     0.873168  p :     2.773662
      px      :     0.948967
      py      :     0.951527
      dz2     :     0.007258  d :     0.052777
      dxz     :     0.013535
      dyz     :     0.015270
      dx2y2   :     0.006074
      dxy     :     0.010640

 21 C s       :     3.223953  s :     3.223953
      pz      :     0.866868  p :     2.838529
      px      :     0.958010
      py      :     1.013651
      dz2     :     0.007430  d :     0.031894
      dxz     :     0.009676
      dyz     :     0.005671
      dx2y2   :     0.004327
      dxy     :     0.004790

 22 C s       :     3.210494  s :     3.210494
      pz      :     0.900947  p :     2.753910
      px      :     0.917322
      py      :     0.935642
      dz2     :     0.008252  d :     0.035378
      dxz     :     0.009266
      dyz     :     0.004845
      dx2y2   :     0.007260
      dxy     :     0.005755

 23 H s       :     0.961674  s :     0.961674
      pz      :     0.013783  p :     0.022621
      px      :     0.004889
      py      :     0.003949

 24 H s       :     0.961012  s :     0.961012
      pz      :     0.005055  p :     0.022626
      px      :     0.007103
      py      :     0.010468

 25 H s       :     0.968092  s :     0.968092
      pz      :     0.005673  p :     0.022518
      px      :     0.012614
      py      :     0.004231

 26 H s       :     0.966433  s :     0.966433
      pz      :     0.006330  p :     0.022636
      px      :     0.005321
      py      :     0.010985

 27 H s       :     0.967830  s :     0.967830
      pz      :     0.005640  p :     0.022544
      px      :     0.012619
      py      :     0.004285

 28 H s       :     0.960715  s :     0.960715
      pz      :     0.013787  p :     0.022371
      px      :     0.004294
      py      :     0.004290

 29 H s       :     0.959693  s :     0.959693
      pz      :     0.004247  p :     0.022380
      px      :     0.007918
      py      :     0.010215

 30 H s       :     0.965172  s :     0.965172
      pz      :     0.005846  p :     0.022653
      px      :     0.006110
      py      :     0.010697

 31 H s       :     0.968258  s :     0.968258
      pz      :     0.004830  p :     0.022548
      px      :     0.012548
      py      :     0.005170

 32 H s       :     0.990457  s :     0.990457
      pz      :     0.009058  p :     0.022466
      px      :     0.005558
      py      :     0.007850

 33 H s       :     0.974392  s :     0.974392
      pz      :     0.005846  p :     0.023504
      px      :     0.006590
      py      :     0.011068

 34 H s       :     0.976839  s :     0.976839
      pz      :     0.008858  p :     0.022686
      px      :     0.006320
      py      :     0.007508

 35 H s       :     0.995016  s :     0.995016
      pz      :     0.005487  p :     0.022688
      px      :     0.005975
      py      :     0.011226

 36 H s       :     0.946223  s :     0.946223
      pz      :     0.009064  p :     0.022384
      px      :     0.009043
      py      :     0.004277

 37 H s       :     0.945170  s :     0.945170
      pz      :     0.003865  p :     0.022388
      px      :     0.007860
      py      :     0.010663

 38 H s       :     0.969358  s :     0.969358
      pz      :     0.009699  p :     0.022732
      px      :     0.006609
      py      :     0.006424

 39 H s       :     0.984499  s :     0.984499
      pz      :     0.012910  p :     0.022408
      px      :     0.005485
      py      :     0.004014

 40 H s       :     0.933406  s :     0.933406
      pz      :     0.005129  p :     0.021146
      px      :     0.010524
      py      :     0.005493

 41 H s       :     0.944135  s :     0.944135
      pz      :     0.005278  p :     0.021914
      px      :     0.006398
      py      :     0.010239

 42 H s       :     0.946083  s :     0.946083
      pz      :     0.009217  p :     0.021903
      px      :     0.005111
      py      :     0.007575

 43 H s       :     0.995098  s :     0.995098
      pz      :     0.010116  p :     0.022912
      px      :     0.005840
      py      :     0.006956

 44 H s       :     0.970845  s :     0.970845
      pz      :     0.013734  p :     0.023508
      px      :     0.005903
      py      :     0.003872



                     *******************************
                     * LOEWDIN POPULATION ANALYSIS *
                     *******************************

----------------------
LOEWDIN ATOMIC CHARGES
----------------------
   0 C :   -0.047252
   1 C :   -0.047399
   2 C :   -0.040408
   3 C :   -0.040117
   4 C :    0.014789
   5 C :   -0.028975
   6 C :   -0.000398
   7 C :   -0.083953
   8 C :    0.016724
   9 C :   -0.036692
  10 C :    0.100357
  11 O :   -0.158307
  12 C :   -0.078402
  13 C :    0.097989
  14 O :   -0.164080
  15 C :   -0.102465
  16 C :    0.025405
  17 C :   -0.052782
  18 C :    0.072521
  19 O :   -0.096252
  20 C :    0.079703
  21 C :   -0.086469
  22 C :    0.013985
  23 H :    0.023750
  24 H :    0.023963
  25 H :    0.025637
  26 H :    0.021956
  27 H :    0.023178
  28 H :    0.026204
  29 H :    0.026760
  30 H :    0.022477
  31 H :    0.023042
  32 H :    0.027353
  33 H :    0.031969
  34 H :    0.035335
  35 H :    0.029085
  36 H :    0.045666
  37 H :    0.046315
  38 H :    0.038234
  39 H :    0.036332
  40 H :    0.032065
  41 H :    0.019879
  42 H :    0.019148
  43 H :    0.030854
  44 H :    0.033277

-------------------------------
LOEWDIN REDUCED ORBITAL CHARGES
-------------------------------
  0 C s       :     2.839681  s :     2.839681
      pz      :     1.052936  p :     3.136050
      px      :     1.055006
      py      :     1.028108
      dz2     :     0.022832  d :     0.071521
      dxz     :     0.007661
      dyz     :     0.008780
      dx2y2   :     0.015754
      dxy     :     0.016495

  1 C s       :     2.845028  s :     2.845028
      pz      :     1.035359  p :     3.087792
      px      :     1.016968
      py      :     1.035465
      dz2     :     0.029458  d :     0.114579
      dxz     :     0.017491
      dyz     :     0.018543
      dx2y2   :     0.024040
      dxy     :     0.025048

  2 C s       :     2.842802  s :     2.842802
      pz      :     1.060748  p :     3.126414
      px      :     1.039159
      py      :     1.026507
      dz2     :     0.020590  d :     0.071192
      dxz     :     0.007021
      dyz     :     0.010970
      dx2y2   :     0.017994
      dxy     :     0.014618

  3 C s       :     2.842601  s :     2.842601
      pz      :     1.002349  p :     3.126348
      px      :     1.061555
      py      :     1.062444
      dz2     :     0.019904  d :     0.071168
      dxz     :     0.011482
      dyz     :     0.014238
      dx2y2   :     0.011925
      dxy     :     0.013619

  4 C s       :     2.863696  s :     2.863696
      pz      :     0.975767  p :     3.018610
      px      :     1.018443
      py      :     1.024400
      dz2     :     0.015493  d :     0.102906
      dxz     :     0.019261
      dyz     :     0.016872
      dx2y2   :     0.024961
      dxy     :     0.026319

  5 C s       :     2.855735  s :     2.855735
      pz      :     1.009506  p :     3.084628
      px      :     1.046541
      py      :     1.028581
      dz2     :     0.009669  d :     0.088612
      dxz     :     0.017276
      dyz     :     0.013650
      dx2y2   :     0.022277
      dxy     :     0.025740

  6 C s       :     2.860175  s :     2.860175
      pz      :     0.986307  p :     3.050626
      px      :     1.045538
      py      :     1.018780
      dz2     :     0.013436  d :     0.089596
      dxz     :     0.019810
      dyz     :     0.012532
      dx2y2   :     0.020127
      dxy     :     0.023691

  7 C s       :     2.858103  s :     2.858103
      pz      :     1.037501  p :     3.123125
      px      :     1.028675
      py      :     1.056949
      dz2     :     0.014703  d :     0.102725
      dxz     :     0.018515
      dyz     :     0.017966
      dx2y2   :     0.027251
      dxy     :     0.024290

  8 C s       :     2.860096  s :     2.860096
      pz      :     0.978012  p :     3.033744
      px      :     1.040994
      py      :     1.014738
      dz2     :     0.009380  d :     0.089436
      dxz     :     0.018228
      dyz     :     0.013442
      dx2y2   :     0.022934
      dxy     :     0.025453

  9 C s       :     2.856521  s :     2.856521
      pz      :     1.016883  p :     3.091229
      px      :     1.047921
      py      :     1.026426
      dz2     :     0.012044  d :     0.088942
      dxz     :     0.019748
      dyz     :     0.012585
      dx2y2   :     0.021185
      dxy     :     0.023381

 10 C s       :     2.878946  s :     2.878946
      pz      :     0.861907  p :     2.809628
      px      :     0.997391
      py      :     0.950329
      dz2     :     0.029271  d :     0.211069
      dxz     :     0.041943
      dyz     :     0.037903
      dx2y2   :     0.060255
      dxy     :     0.041698

 11 O s       :     3.544744  s :     3.544744
      pz      :     1.379949  p :     4.583292
      px      :     1.659953
      py      :     1.543389
      dz2     :     0.005111  d :     0.030272
      dxz     :     0.005702
      dyz     :     0.009151
      dx2y2   :     0.004175
      dxy     :     0.006133

 12 C s       :     2.852358  s :     2.852358
      pz      :     1.046036  p :     3.149669
      px      :     1.053843
      py      :     1.049790
      dz2     :     0.018639  d :     0.076375
      dxz     :     0.020079
      dyz     :     0.008013
      dx2y2   :     0.008885
      dxy     :     0.020759

 13 C s       :     2.877178  s :     2.877178
      pz      :     1.005183  p :     2.813212
      px      :     0.967067
      py      :     0.840963
      dz2     :     0.075105  d :     0.211621
      dxz     :     0.048676
      dyz     :     0.032970
      dx2y2   :     0.024334
      dxy     :     0.030536

 14 O s       :     3.545461  s :     3.545461
      pz      :     1.586531  p :     4.588482
      px      :     1.600952
      py      :     1.400999
      dz2     :     0.007262  d :     0.030136
      dxz     :     0.008638
      dyz     :     0.008001
      dx2y2   :     0.002740
      dxy     :     0.003496

 15 C s       :     2.855190  s :     2.855190
      pz      :     1.067885  p :     3.145249
      px      :     1.034148
      py      :     1.043216
      dz2     :     0.030446  d :     0.102026
      dxz     :     0.028166
      dyz     :     0.018413
      dx2y2   :     0.010080
      dxy     :     0.014922

 16 C s       :     2.859648  s :     2.859648
      pz      :     1.049471  p :     3.024488
      px      :     1.022022
      py      :     0.952995
      dz2     :     0.021852  d :     0.090459
      dxz     :     0.027003
      dyz     :     0.015581
      dx2y2   :     0.012295
      dxy     :     0.013728

 17 C s       :     2.859891  s :     2.859891
      pz      :     1.032097  p :     3.107491
      px      :     1.048766
      py      :     1.026627
      dz2     :     0.018906  d :     0.085400
      dxz     :     0.027369
      dyz     :     0.013429
      dx2y2   :     0.012166
      dxy     :     0.013531

 18 C s       :     2.840590  s :     2.840590
      pz      :     1.092809  p :     2.911506
      px      :     0.893976
      py      :     0.924721
      dz2     :     0.036478  d :     0.175383
      dxz     :     0.046032
      dyz     :     0.026512
      dx2y2   :     0.034222
      dxy     :     0.032139

 19 O s       :     3.423367  s :     3.423367
      pz      :     1.613020  p :     4.641534
      px      :     1.419189
      py      :     1.609325
      dz2     :     0.005436  d :     0.031351
      dxz     :     0.008246
      dyz     :     0.005392
      dx2y2   :     0.005847
      dxy     :     0.006430

 20 C s       :     2.846135  s :     2.846135
      pz      :     0.948228  p :     2.955420
      px      :     0.997946
      py      :     1.009246
      dz2     :     0.015727  d :     0.118742
      dxz     :     0.030478
      dyz     :     0.036127
      dx2y2   :     0.012776
      dxy     :     0.023634

 21 C s       :     2.855740  s :     2.855740
      pz      :     1.035761  p :     3.145124
      px      :     1.055931
      py      :     1.053433
      dz2     :     0.021883  d :     0.085606
      dxz     :     0.027467
      dyz     :     0.013863
      dx2y2   :     0.009919
      dxy     :     0.012474

 22 C s       :     2.859463  s :     2.859463
      pz      :     1.051051  p :     3.035627
      px      :     1.023234
      py      :     0.961342
      dz2     :     0.022285  d :     0.090924
      dxz     :     0.025019
      dyz     :     0.012031
      dx2y2   :     0.016308
      dxy     :     0.015281

 23 H s       :     0.911940  s :     0.911940
      pz      :     0.039731  p :     0.064309
      px      :     0.012406
      py      :     0.012172

 24 H s       :     0.911705  s :     0.911705
      pz      :     0.013316  p :     0.064332
      px      :     0.019817
      py      :     0.031198

 25 H s       :     0.910501  s :     0.910501
      pz      :     0.015343  p :     0.063862
      px      :     0.035710
      py      :     0.012808

 26 H s       :     0.913715  s :     0.913715
      pz      :     0.016835  p :     0.064329
      px      :     0.014802
      py      :     0.032692

 27 H s       :     0.913093  s :     0.913093
      pz      :     0.014633  p :     0.063729
      px      :     0.036526
      py      :     0.012570

 28 H s       :     0.910016  s :     0.910016
      pz      :     0.039325  p :     0.063781
      px      :     0.011897
      py      :     0.012558

 29 H s       :     0.909438  s :     0.909438
      pz      :     0.014050  p :     0.063801
      px      :     0.021121
      py      :     0.028630

 30 H s       :     0.913146  s :     0.913146
      pz      :     0.018728  p :     0.064377
      px      :     0.015468
      py      :     0.030181

 31 H s       :     0.913227  s :     0.913227
      pz      :     0.015550  p :     0.063731
      px      :     0.035284
      py      :     0.012897

 32 H s       :     0.905323  s :     0.905323
      pz      :     0.026547  p :     0.067325
      px      :     0.017037
      py      :     0.023741

 33 H s       :     0.896932  s :     0.896932
      pz      :     0.017787  p :     0.071098
      px      :     0.019975
      py      :     0.033336

 34 H s       :     0.895342  s :     0.895342
      pz      :     0.026497  p :     0.069323
      px      :     0.019944
      py      :     0.022882

 35 H s       :     0.902517  s :     0.902517
      pz      :     0.017105  p :     0.068398
      px      :     0.018431
      py      :     0.032862

[...]
  0-1A  ->  4-1A    5.031439   40581.3   246.4   0.386863899   3.13840   1.62435   0.70680  -0.01816
  0-1A  ->  5-1A    5.066945   40867.7   244.7   0.045329995   0.36516  -0.56976  -0.20046  -0.01875
  0-1A  ->  6-1A    5.313576   42856.9   233.3   0.413462330   3.17608  -1.70549   0.37269  -0.35844
  0-1A  ->  7-1A    5.683715   45842.3   218.1   0.074397202   0.53428  -0.62456  -0.36051   0.11931
  0-1A  ->  8-1A    5.797037   46756.3   213.9   0.007227074   0.05089   0.16165   0.15564   0.02305
  0-1A  ->  9-1A    6.162939   49707.5   201.2   0.016809491   0.11133   0.25591  -0.21410  -0.00150
  0-1A  -> 10-1A    6.234892   50287.8   198.9   0.030560565   0.20007   0.19488  -0.11581  -0.38558
  0-1A  -> 11-1A    6.278027   50635.7   197.5   0.084748549   0.55100   0.07167  -0.09898  -0.73216
  0-1A  -> 12-1A    6.358772   51287.0   195.0   0.035479449   0.22774  -0.02976  -0.33509  -0.33848
  0-1A  -> 13-1A    6.770115   54604.7   183.1   0.114656596   0.69127  -0.29913   0.10672   0.76837
  0-1A  -> 14-1A    6.783245   54710.6   182.8   0.024176327   0.14548   0.19897  -0.04495  -0.32228
  0-1A  -> 15-1A    6.796212   54815.2   182.4   0.002840419   0.01706  -0.01825  -0.02889  -0.12606
  0-1A  -> 16-1A    6.906194   55702.2   179.5   0.021208333   0.12535  -0.05019  -0.24116  -0.25430
  0-1A  -> 17-1A    6.942964   55998.8   178.6   0.158391271   0.93117   0.04667  -0.69730  -0.66540
  0-1A  -> 18-1A    7.049962   56861.8   175.9   0.022659510   0.13119   0.35916  -0.01944   0.04267
  0-1A  -> 19-1A    7.099303   57259.8   174.6   0.510958280   2.93773   1.66556   0.06120   0.39987
  0-1A  -> 20-1A    7.117462   57406.2   174.2   0.577293188   3.31065   1.76902   0.26278   0.33491
  0-1A  -> 21-1A    7.218393   58220.3   171.8   0.138206924   0.78150  -0.07859  -0.79589   0.37669
  0-1A  -> 22-1A    7.292973   58821.8   170.0   0.006218988   0.03481  -0.18271  -0.03727   0.00583

----------------------------------------------------------------------------------------------------
                     ABSORPTION SPECTRUM VIA TRANSITION VELOCITY DIPOLE MOMENTS    
----------------------------------------------------------------------------------------------------
     Transition      Energy     Energy  Wavelength fosc(P2)      P2        PX        PY        PZ   
                      (eV)      (cm-1)    (nm)                 (au**2)    (au)      (au)      (au)  
----------------------------------------------------------------------------------------------------
  0-1A  ->  1-1A    3.934638   31735.0   315.1   0.010384396   0.00225   0.04712   0.00480  -0.00292
  0-1A  ->  2-1A    4.105939   33116.6   302.0   0.001646583   0.00037  -0.01223   0.01213  -0.00871
  0-1A  ->  3-1A    4.987091   40223.6   248.6   0.056711375   0.01559  -0.12230  -0.02395   0.00772
  0-1A  ->  4-1A    5.031439   40581.3   246.4   0.107872449   0.02992  -0.16795  -0.00225   0.04131
  0-1A  ->  5-1A    5.066945   40867.7   244.7   0.015351151   0.00429   0.06403   0.00206  -0.01354
  0-1A  ->  6-1A    5.313576   42856.9   233.3   0.172701703   0.05059   0.21822  -0.05441   0.00207
  0-1A  ->  7-1A    5.683715   45842.3   218.1   0.021085768   0.00661   0.07736   0.02262  -0.01048
  0-1A  ->  8-1A    5.797037   46756.3   213.9   0.000534427   0.00017  -0.01258   0.00343  -0.00083
  0-1A  ->  9-1A    6.162939   49707.5   201.2   0.013948837   0.00474  -0.06862   0.00541  -0.00032
  0-1A  -> 10-1A    6.234892   50287.8   198.9   0.002375923   0.00082  -0.02014  -0.00386  -0.01990
  0-1A  -> 11-1A    6.278027   50635.7   197.5   0.005200936   0.00180  -0.03958  -0.00245  -0.01508
  0-1A  -> 12-1A    6.358772   51287.0   195.0   0.003141131   0.00110  -0.01018  -0.02799  -0.01462
  0-1A  -> 13-1A    6.770115   54604.7   183.1   0.009248160   0.00345   0.05863   0.00203   0.00304
  0-1A  -> 14-1A    6.783245   54710.6   182.8   0.004033725   0.00151  -0.03869   0.00285   0.00184
  0-1A  -> 15-1A    6.796212   54815.2   182.4   0.000371866   0.00014   0.00539   0.00437  -0.00955
  0-1A  -> 16-1A    6.906194   55702.2   179.5   0.001489524   0.00057   0.00254  -0.02273  -0.00662
  0-1A  -> 17-1A    6.942964   55998.8   178.6   0.008769756   0.00336  -0.02068  -0.04941  -0.02207
  0-1A  -> 18-1A    7.049962   56861.8   175.9   0.009736842   0.00378  -0.06114   0.00602   0.00317
  0-1A  -> 19-1A    7.099303   57259.8   174.6   0.166923509   0.06532  -0.25288   0.03341   0.01611
  0-1A  -> 20-1A    7.117462   57406.2   174.2   0.168490707   0.06611  -0.25398   0.02303   0.03273
  0-1A  -> 21-1A    7.218393   58220.3   171.8   0.022747507   0.00905  -0.00532   0.06114  -0.07270
  0-1A  -> 22-1A    7.292973   58821.8   170.0   0.001752478   0.00070   0.02513   0.00633  -0.00575

------------------------------------------------------------------------------------------
                     CD SPECTRUM VIA TRANSITION ELECTRIC DIPOLE MOMENTS    
------------------------------------------------------------------------------------------
     Transition      Energy     Energy  Wavelength    R        MX        MY        MZ   
                      (eV)      (cm-1)    (nm)   (1e40*cgs)   (au)      (au)      (au)  
------------------------------------------------------------------------------------------
  0-1A  ->  1-1A    3.934638   31735.0   315.1    6.85635   0.29167   0.33551   0.43207
  0-1A  ->  2-1A    4.105939   33116.6   302.0    2.23778  -0.06108  -0.01978  -0.11021
  0-1A  ->  3-1A    4.987091   40223.6   248.6    2.54268  -0.06077   0.08827  -0.28529
  0-1A  ->  4-1A    5.031439   40581.3   246.4  148.06301  -0.24614   0.11356  -0.30233
  0-1A  ->  5-1A    5.066945   40867.7   244.7    4.27802  -0.05619   0.19966   0.05693
  0-1A  ->  6-1A    5.313576   42856.9   233.3   37.26792   0.13693   0.44334   0.02998
  0-1A  ->  7-1A    5.683715   45842.3   218.1   -9.23179   0.08954  -0.12974   0.24083
  0-1A  ->  8-1A    5.797037   46756.3   213.9    0.30728  -0.01550   0.01992  -0.05406
  0-1A  ->  9-1A    6.162939   49707.5   201.2   -5.41461  -0.07716  -0.14582  -0.00679
  0-1A  -> 10-1A    6.234892   50287.8   198.9   -7.92562   0.04493  -0.08505   0.00466
  0-1A  -> 11-1A    6.278027   50635.7   197.5  -18.65010  -0.02272  -0.00897  -0.05504
  0-1A  -> 12-1A    6.358772   51287.0   195.0   -1.41217  -0.00027  -0.01335   0.00439
  0-1A  -> 13-1A    6.770115   54604.7   183.1  -17.81196  -0.00794   0.11378   0.03028
  0-1A  -> 14-1A    6.783245   54710.6   182.8  -14.42545   0.04273  -0.01941  -0.06585
  0-1A  -> 15-1A    6.796212   54815.2   182.4   -3.84616  -0.01576  -0.07914  -0.04430
  0-1A  -> 16-1A    6.906194   55702.2   179.5    2.12486  -0.05898   0.03947  -0.00807
  0-1A  -> 17-1A    6.942964   55998.8   178.6   -3.69240   0.02361  -0.04327   0.03523
  0-1A  -> 18-1A    7.049962   56861.8   175.9   -0.49542   0.00344  -0.05108  -0.02763
  0-1A  -> 19-1A    7.099303   57259.8   174.6  140.06665  -0.07795  -0.31419  -0.37022
  0-1A  -> 20-1A    7.117462   57406.2   174.2  199.59066  -0.14776  -0.20976  -0.31900
  0-1A  -> 21-1A    7.218393   58220.3   171.8  -85.60225   0.05704  -0.13723   0.20398
  0-1A  -> 22-1A    7.292973   58821.8   170.0    2.62584   0.02302   0.03821   0.01046

------------------------------------------------------------------------------------------
                     CD SPECTRUM VIA TRANSITION VELOCITY DIPOLE MOMENTS    
------------------------------------------------------------------------------------------
     Transition      Energy     Energy  Wavelength    R        MX        MY        MZ   
                      (eV)      (cm-1)    (nm)   (1e40*cgs)   (au)      (au)      (au)  
------------------------------------------------------------------------------------------
  0-1A  ->  1-1A    3.934638   31735.0   315.1   45.95534   0.29167   0.33551   0.43207
  0-1A  ->  2-1A    4.105939   33116.6   302.0    4.58443  -0.06108  -0.01978  -0.11021
  0-1A  ->  3-1A    4.987091   40223.6   248.6    8.01635  -0.06077   0.08827  -0.28529
  0-1A  ->  4-1A    5.031439   40581.3   246.4   72.90722  -0.24614   0.11356  -0.30233
  0-1A  ->  5-1A    5.066945   40867.7   244.7  -10.01940  -0.05619   0.19966   0.05693
  0-1A  ->  6-1A    5.313576   42856.9   233.3   14.04904   0.13693   0.44334   0.02998
  0-1A  ->  7-1A    5.683715   45842.3   218.1    3.31627   0.08954  -0.12974   0.24083
  0-1A  ->  8-1A    5.797037   46756.3   213.9    0.68203  -0.01550   0.01992  -0.05406
  0-1A  ->  9-1A    6.162939   49707.5   201.2    9.38358  -0.07716  -0.14582  -0.00679
  0-1A  -> 10-1A    6.234892   50287.8   198.9   -1.37835   0.04493  -0.08505   0.00466
  0-1A  -> 11-1A    6.278027   50635.7   197.5    3.57853  -0.02272  -0.00897  -0.05504
  0-1A  -> 12-1A    6.358772   51287.0   195.0    0.62991  -0.00027  -0.01335   0.00439
  0-1A  -> 13-1A    6.770115   54604.7   183.1   -0.27058  -0.00794   0.11378   0.03028
  0-1A  -> 14-1A    6.783245   54710.6   182.8   -3.46022   0.04273  -0.01941  -0.06585
  0-1A  -> 15-1A    6.796212   54815.2   182.4   -0.01482  -0.01576  -0.07914  -0.04430
  0-1A  -> 16-1A    6.906194   55702.2   179.5   -1.84641  -0.05898   0.03947  -0.00807
  0-1A  -> 17-1A    6.942964   55998.8   178.6    1.61100   0.02361  -0.04327   0.03523
  0-1A  -> 18-1A    7.049962   56861.8   175.9   -1.10188   0.00344  -0.05108  -0.02763
  0-1A  -> 19-1A    7.099303   57259.8   174.6    5.87700  -0.07795  -0.31419  -0.37022
  0-1A  -> 20-1A    7.117462   57406.2   174.2   40.11677  -0.14776  -0.20976  -0.31900
  0-1A  -> 21-1A    7.218393   58220.3   171.8  -41.80519   0.05704  -0.13723   0.20398
  0-1A  -> 22-1A    7.292973   58821.8   170.0    1.33758   0.02302   0.03821   0.01046

Total run time:      458.462 sec

           *** ORCA-CIS/TD-DFT FINISHED WITHOUT ERROR ***
-----------------------
CIS/TD-DFT TOTAL ENERGY
-----------------------

    E(SCF)  =   -999.801630442 Eh
    DE(CIS) =      0.144595309 Eh (Root  1)
    ----------------------------- ---------
    E(tot)  =   -999.657035134 Eh


Maximum memory used throughout the entire CIS-calculation: 798.2 MB
=> NOW LEAVING ORCA_CIS

-------------------------   --------------------
FINAL SINGLE POINT ENERGY      -999.657035133582
-------------------------   --------------------



           ************************************************************
           *        Program running with 4 parallel MPI-processes     *
           *              working on a common directory               *
           ************************************************************

------------------------------------------------------------------------------
                              ORCA PROPERTY CALCULATIONS
------------------------------------------------------------------------------

GBWName                                 ... td.gbw
Number of atoms                         ...     45
Number of basis functions               ...    432
Max core memory                         ...   2500 MB

Electric properties:
Dipole moment                           ... YES
Quadrupole moment                       ...  NO
Static polarizability (Dipole/Dipole)   ...  NO
Static polarizability (Dipole/Quad.)    ...  NO
Static polarizability (Quad./Quad.)     ...  NO
Static polarizability (Velocity)        ...  NO
Static hyperpolarizability              ...  NO

Atomic electric properties:
Dipole moment                           ...  NO
Quadrupole moment                       ...  NO
Static polarizability                   ...  NO

Choice of electric origin               ... Center of mass
Position of electric origin             ...     1.161919    -0.316041     0.223549

General magnetic properties:
Magnetizability                         ...  NO

EPR properties:
g-Tensor (aka g-matrix)                 ...  NO
Zero-Field splitting spin-orbit         ...  NO
Zero-field splitting spin-spin          ...  NO
Hyperfine couplings                     ...  NO (   0 nuclei)
Quadrupole couplings                    ...  NO (   0 nuclei)
Contact density                         ...  NO (   0 nuclei)

NMR properties:
Chemical shifts                         ...  NO (   0 nuclei)
Spin-rotation constants                 ...  NO (   0 nuclei)
Spin-spin couplings                     ...  NO (   0 nuclei,    0 pairs)

Choice of magnetic origin               ... GIAO
Position of magnetic origin             ...     0.000000     0.000000     0.000000

Properties with geometric perturbations:
SCF Hessian                             ...  NO
IR spectrum                             ...  NO
VCD spectrum                            ...  NO
X-ray spectroscopy properties:
SCF XES/XAS/RIXS spectra                ...  NO

SCF SOC stabilization energy            ...  NO
Diagonal Born-Oppenheimer correction    ...  NO

-------------
DIPOLE MOMENT
-------------

Method             : SCF
Type of density    : Electron Density
Multiplicity       :   1
Irrep              :   0
Energy             :  -999.8016304422967551 Eh
Basis              : AO
                                X                 Y                 Z
Electronic contribution:     25.885268307      -6.976410393       2.021784820
Nuclear contribution   :    -25.672005244       7.454069920      -1.737094616
                        -----------------------------------------
Total Dipole Moment    :      0.213263063       0.477659526       0.284690204
                        -----------------------------------------
Magnitude (a.u.)       :      0.595557109
Magnitude (Debye)      :      1.513785867



--------------------
Rotational spectrum 
--------------------
 
Rotational constants in cm-1:             0.020626             0.003013             0.002967 
Rotational constants in MHz :           618.348684            90.338154            88.963233 

Dipole components along the rotational axes: 
x,y,z [a.u.] :    -0.187911     0.527536     0.202691 
x,y,z [Debye]:    -0.477632     1.340889     0.515200 

 

Dipole moment calculation done in   0.1 sec 

Maximum memory used throughout the entire PROP-calculation: 23.3 MB

--------------------------------
SUGGESTED CITATIONS FOR THIS RUN
--------------------------------

Below you find a list of papers that are relevant to this ORCA run
We neither can nor want to force you to cite these papers, but we appreciate if you do
You receive ORCA, which is the product of decades of hard work by many enthusiastic individuals, for free
The only thing we kindly ask in return is that you cite our papers,
We deeply appreciate it, if you show your appreciation for ORCA by not just citing the generic ORCA reference.

Please note that relegating all ORCA citations to the supporting information does *not* help us.
SI sections are not indexed - citations you put there will not count into any citation statistics
But we need these citations in order to attract the funding resources that allow us to do what we are doing

Therefore, if you are a happy ORCA user, please consider citing a few of the papers listed below in the main body of your paper

In addition to the list printed below, the program has created the file td.bibtex that contains the list in bibtex format
You can import this file easily into all common literature databanks and citation aid programs

It goes without saying that in many instances, there are alternative algorithms to achieve similar
results as the ones you have gotten from ORCA. It is, of course, also the case that in some instances
ORCA just re-implements algorithms worked out by others. We are fully aware of that and we are also
fully appreciative of our colleagues work. Hence this citation list should not be read as indicating
that the listed papers, which are focused on our own work, are the only ones worth citing. It simply
meant to make it easier for users to cite ORCA specific papers. It is not a substitute for doing your
own literature research and citing the relevant literature in a scientifically appropriate manner.

List of essential papers. We consider these as the minimum necessary citations

  1. Neese, F.
     Software update: the ORCA program system, version 6.0
     WIRES Comput. Molec. Sci. 2025 15(1), e70019
     doi.org/10.1002/wcms.70019

List of papers to cite with high priority. The work reported in these papers was absolutely
necessary for this run to complete.
Our perspective: the developers of density functionals and basis sets usually get cited in chemistry papers
Good! But without the algorithms to do something with them, the functionals or basis sets would not do anything.
Hence, in our opinion, the algorithm design and method developments papers are equally worthy of getting cited

  1. Neese, F.; Olbrich, G.
     Efficient use of the resolution of the identity approximation in time-dependent density functional calculations with hybrid density functionals
     Chem. Phys. Lett. 2002 362 , 170-178
     doi.org/10.1016/s0009-2614(02)01053-9
  2. Neese, F.
     An improvement of the resolution of the identity approximation for the formation of the Coulomb matrix
     J. Comp. Chem. 2003 24(14), 1740-1747
     doi.org/10.1002/jcc.10318
  3. Neese, F.; Wennmohs, F.; Hansen, A.; Becker, U.
     Efficient, approximate and parallel Hartree-Fock and hybrid DFT calculations. A 'chain-of-spheres' algorithm for the Hartree-Fock exchange
     Chem. Phys. 2009 356(1-3), 98-109
     doi.org/10.1016/j.chemphys.2008.10.036
  4. Helmich-Paris, B.; de Souza, B.; Neese, F.; Izsák, R.
     An improved chain of spheres for exchange algorithm
     J. Chem. Phys. 2021 155(10), 104109
     doi.org/10.1063/5.0058766
  5. Neese, F.
     The SHARK Integral Generation and Digestion System
     J. Comp. Chem. 2022 44(3), 381
     doi.org/10.1002/jcc.26942

List of suggested additional citations. These are papers that are important in the 'surrounding' of 
of this run, or papers that preceded the highly important papers. If you like your results we are grateful for a citation.

  1. Izsak, R.; Neese, F.
     An overlap fitted chain of spheres exchange method
     J. Chem. Phys. 2011 135 , 144105
     doi.org/10.1063/1.3646921
  2. Izsak, R.; Hansen, A.; Neese, F.
     The resolution of identity and chain of spheres approximations for the LPNO-CCSD singles Fock term
     Molec. Phys. 2012 110 , 2413-2417
     doi.org/10.1080/00268976.2012.687466
  3. Neese, F.
     The ORCA program system
     WIRES Comput. Molec. Sci. 2012 2(1), 73-78
     doi.org/10.1002/wcms.81
  4. Izsak, R.; Neese, F.; Klopper, W.
     Robust fitting techniques in the chain of spheres approximation to the Fock exchange: The role of the complementary space
     J. Chem. Phys. 2013 139 , 
     doi.org/10.1063/1.4819264
  5. Neese, F.
     Software update: the ORCA program system, version 4.0
     WIRES Comput. Molec. Sci. 2018 8(1), 1-6
     doi.org/10.1002/wcms.1327
  6. Neese, F.; Wennmohs, F.; Becker, U.; Riplinger, C.
     The ORCA quantum chemistry program package
     J. Chem. Phys. 2020 152(22), 224108
     doi.org/10.1063/5.0004608
  7. Neese, F.
     Software update: The ORCA program system—Version 5.0
     WIRES Comput. Molec. Sci. 2022 12(1), e1606
     doi.org/10.1002/wcms.1606

List of optional additional citations

  1. Neese, F.
     Approximate second-order SCF convergence for spin unrestricted wavefunctions
     Chem. Phys. Lett. 2000 325(1-3), 93-98
     doi.org/10.1016/s0009-2614(00)00662-x

Timings for individual modules:

Sum of individual times          ...      749.519 sec (=  12.492 min)
Startup calculation              ...        7.005 sec (=   0.117 min)   0.9 %
SCF iterations                   ...      282.885 sec (=   4.715 min)  37.7 %
Property integrals               ...        0.516 sec (=   0.009 min)   0.1 %
Property calculations            ...        0.366 sec (=   0.006 min)   0.0 %
CIS module                       ...      458.747 sec (=   7.646 min)  61.2 %
                             ****ORCA TERMINATED NORMALLY****
TOTAL RUN TIME: 0 days 0 hours 12 minutes 30 seconds 644 msec
