
                                 *****************
                                 * O   R   C   A *
                                 *****************

                                            #,                                       
                                            ###                                      
                                            ####                                     
                                            #####                                    
                                            ######                                   
                                           ########,                                 
                                     ,,################,,,,,                         
                               ,,#################################,,                 
                          ,,##########################################,,             
                       ,#########################################, ''#####,          
                    ,#############################################,,   '####,        
                  ,##################################################,,,,####,       
                ,###########''''           ''''###############################       
              ,#####''   ,,,,##########,,,,          '''####'''          '####       
            ,##' ,,,,###########################,,,                        '##       
           ' ,,###''''                  '''############,,,                           
         ,,##''                                '''############,,,,        ,,,,,,###''
      ,#''                                            '''#######################'''  
     '                                                          ''''####''''         
             ,#######,   #######,   ,#######,      ##                                
            ,#'     '#,  ##    ##  ,#'     '#,    #''#        ,####,    ,#,          
            ##       ##  ##   ,#'  ##            #'  '#       #'       ,# #          
            ##       ##  #######   ##           ,######,      #####,      #          
            '#,     ,#'  ##    ##  '#,     ,#' ,#      #,     #,   #      #          
             '#######'   ##     ##  '#######'  #'      '#     '####' #    #          



                #########################################################
                #                        -***-                          #
                #          Department of theory and spectroscopy        #
                #                                                       #
                #                      Frank Neese                      #
                #                                                       #
                #     Directorship, Architecture, Infrastructure        #
                #                    SHARK, DRIVERS                     #
                #        Core code/Algorithms in most modules           #
                #                                                       #
                #        Max Planck Institute fuer Kohlenforschung      #
                #                Kaiser Wilhelm Platz 1                 #
                #                 D-45470 Muelheim/Ruhr                 #
                #                      Germany                          #
                #                                                       #
                #                  All rights reserved                  #
                #                        -***-                          #
                #########################################################


                         Program Version 6.1.1  -  RELEASE   -


 With contributions from (in alphabetic order):
[Max-Planck-Institut fuer Kohlenforschung]                               
  Daniel Aravena         : Magnetic Suceptibility                        
  Michael Atanasov       : Ab Initio Ligand Field Theory (pilot matlab implementation)
  Alexander A. Auer      : GIAO ZORA, VPT2 properties, NMR spectrum      
  Ute Becker             : All parallelization in ORCA, NUMFREQ, NUMCALC 
  Giovanni Bistoni       : ED, misc. LED, open-shell LED, HFLD           
  Dmytro Bykov           : pre 5.0 version of the SCF Hessian            
  Marcos Casanova-Páez   : Triplet and SCS-CIS(D). UHF-(DLPNO)-IP/EA/STEOM-CCSD. UHF-CVS-IP/STEOM-CCSD   
  Vijay G. Chilkuri      : MRCI spin determinant printing, contributions to CSF-ICE 
  Pauline Colinet        : FMM embedding                                 
  Dipayan Datta          : RHF DLPNO-CCSD density                        
  Achintya Kumar Dutta   : EOM-CC, STEOM-CC                              
  Nicolas Foglia         : Exact transition moments, OPA infrastructure, MCD improvements    
  Dmitry Ganyushin       : Spin-Orbit,Spin-Spin,Magnetic field MRCI      
  Miquel Garcia-Rates    : C-PCM and meta-GGA Hessian, CCSD/C-PCM, Gaussian charge scheme 
  Tiago L. C. Gouveia    : GS-ROHF, GS-ROCIS                             
  Yang Guo               : DLPNO-NEVPT2, F12-NEVPT2, CIM, IAO-localization        
  Andreas Hansen         : Spin unrestricted coupled pair/coupled cluster methods 
  Ingolf Harden          : AUTO-CI MPn and infrastructure                
  Benjamin Helmich-Paris : MC-RPA, TRAH-(SCF,CASSCF), AVAS, COSX integrals, SCF dyn. polar., MC-PDFT, srDFT 
  Lee Huntington         : MR-EOM, pCC                                   
  Robert Izsak           : Overlap fitted RIJCOSX, COSX-SCS-MP3, EOM     
  Riya Kayal             : Wick's Theorem for AUTO-CI, AUTO-CI UHF-CCSDT 
  Emily Kempfer          : AUTO-CI RHF CISDT and CCSDT, approximate NEVPT4
  Christian Kollmar      : KDIIS, OOCD, Brueckner-CCSD(T), CCSD density, CASPT2, CASPT2-K, improved NEVPT2 
  Axel Koslowski         : Symmetry handling                             
  Simone Kossmann        : meta-GGA functionals, TD-DFT gradient, OOMP2, (MP2 Hessian; deprecated post 5.0) 
  Lucas Lang             : DCDCAS, Hyperfine gauge corrections, ICE-SOC+SSC
  Marvin Lechner         : AUTO-CI (C++ implementation), FIC-MRCC        
  Spencer Leger          : CASSCF response                               
  Dagmar Lenk            : GEPOL surface, SMD, ORCA-2-JSON               
  Dimitrios Liakos       : Extrapolation schemes; Compound Job, Property file
  Dimitrios Manganas     : Further ROCIS development; embedding schemes. LFT, Crystal Embedding 
  Dimitrios Pantazis     : SARC Basis sets                               
  Anastasios Papadopoulos: AUTO-CI, single reference methods and gradients 
  Taras Petrenko         : pre 6.0 DFT Hessian and TD-DFT gradient,  ECA, NRVS 
  Petra Pikulova         : Analytic Raman intensities                    
  Peter Pinski           : DLPNO-MP2, DLPNO-MP2 Gradient                 
  Shashank Vittal Rao    : ES-AILFT, MagRelax                            
  Christoph Reimann      : Effective Core Potentials                     
  Marius Retegan         : Local ZFS, SOC                                
  Christoph Riplinger    : Optimizer, TS searches, QM/MM, DLPNO-CCSD(T), (RO)-DLPNO pert. Triples 
  Michael Roemelt        : Original ROCIS implementation, recursive CI coupling coefficients
  Masaaki Saitow         : Open-shell DLPNO-CCSD energy and density      
  Barbara Sandhoefer     : DKH picture change effects                    
  Yorick L. A. Schmerwitz: GMF and freeze-and-release deltaSCF, NEB S-IDPP initial path                    
  Kantharuban Sivalingam : CASSCF convergence/infrastructure, NEVPT2, NEVPT3, NEVPT4(SD), FIC-MRCI and CEPA variants
  Bernardo de Souza      : ESD, SOC TD-DFT                               
  Georgi L. Stoychev     : AutoAux, RI-MP2 NMR, DLPNO-MP2 response, X2C  
  Van Anh Tran           : RI-MP2 g-tensors                              
  Willem Van den Heuvel  : Paramagnetic NMR                              
  Zikuan Wang            : NOTCH, Electric field optimization            
  Frank Wennmohs         : Technical directorship and infrastructure     
  Hang Xu                : AUTO-CI-Response properties                   
                                                                         
[FACCTs GmbH]                                                            
  Markus Bursch, Nicolas Foglia, Miquel Garcia-Rates, Ingolf Harden, Hagen Neugebauer, Anastasios Papadopoulos, 
  Christoph Riplinger, Bernardo de Souza, Georgi L. Stoychev                                                    
                                                                 
  APM, various basis sets, CI-OPT, improved COSX, DLPNO-Multilevel,           
  DOCKER, DRACO, updates on ESD, Fragmentator, GOAT, IRC, LR-CPCM, L-BFGS, MBIS, meta-GGA TD-DFT gradient, ML-optimized integration grids, 
  MM, NACMEs, nearIR, NEB, NEB-TS, NL-DFT gradient (VV10), 2- and 3-layer-ONIOM, interface openCOSMO-RS, QMMM,   
  Crystal-QMMM, RESP, rigid body optimization, SF, symmetry and pop. for TD-DFT, various functionals, SOLVATOR                                   
                                                                         
[Other institutions]                                                     
  V. Asgeirsson          : NEB                                           
  Christoph Bannwarth    : sTDA-DFT, sTD-DFT, PBEh-3c, B97-3c, D3        
  Giovanni Bistoni       : ETS/NOCV, ADLD/ADEX, COVALED                  
  Martin Brehm           : Molecular dynamics                            
  Ronald Cardenas        : ETS/NOCV                                      
  Martina Colucci        : COVALED                                       
  Sebastian Ehlert       : rSCAN, r2SCAN, r2SCAN-3c, D4, dhf basis sets  
  Marvin Friede          : D4 for Fr, Ra, Ac-Lr                          
  Lars Goerigk           : TD-DFT with DH, B97 family of functionals     
  Stefan Grimme          : VdW corrections, initial TS optimization, DFT functionals, gCP, sTDA/sTD-DF 
  Waldemar Hujo          : DFT-NL                                        
  H. Jonsson             : NEB                                           
  Holger Kruse           : gCP                                           
  Marcel Mueller         : wB97X-3c, vDZP basis set                      
  Hagen Neugebauer       : wr2SCAN, Native XTB                           
  Gianluca Regni         : ADLD/ADEX                                     
  Tobias Risthaus        : pre 6.0 range-separated hybrid DFT and stability analysis
  Lukas Wittmann         : regularized MP2, r2SCAN double-hybrids, wr2SCAN        
                                                                         
We gratefully acknowledge several colleagues who have allowed us to      
interface, adapt or use parts of their codes:                            
  Ed Valeev, F. Pavosevic, A. Kumar             : LibInt (2-el integral package), F12 methods 
  Garnet Chan, S. Sharma, J. Yang, R. Olivares  : DMRG                   
  Ulf Ekstrom                                   : XCFun DFT Library      
  Mihaly Kallay                                 : mrcc  (arbitrary order and MRCC methods)
  Frank Weinhold                                : gennbo (NPA and NBO analysis)           
  Simon Mueller                                 : openCOSMO-RS                            
  Christopher J. Cramer and Donald G. Truhlar   : smd solvation model                     
  S Lehtola, MJT Oliveira, MAL Marques          : LibXC Library                           
  Liviu Ungur et al                             : ANISO software                          


 Your calculation uses the libint2 library for the computation of 2-el integrals
 For citations please refer to: http://libint.valeyev.net

 Your ORCA version has been built with support for libXC version: 7.0.0
 For citations please refer to: https://libxc.gitlab.io

 This ORCA versions uses:
   CBLAS   interface :  Fast vector & matrix operations
   LAPACKE interface :  Fast linear algebra routines
   Shared memory     :  Shared parallel matrices


  ***********************************
  * Starting time: Tue Jul 21 20:52:26 2026
  * Host name:     DESKTOP-19Q153E
  * Process ID:    26576
  * Working dir.:  C:\Users\ysm04\Documents\etc\uv_vis\calculations\02_tddft_orca\diketo\diketo_c012\b3lyp_631+gd\ethanol\dftopt22
  ***********************************

NOTE: MaxCore=2500 MB was set to SCF,MP2,MDCI,CIPSI,MRCI,RASCI and CIS
      => If you want to overwrite this, your respective input block should be placed after the MaxCore statement
================================================================================

----- Orbital basis set information -----
Your calculation utilizes the basis: 6-31+G(d)
   H-He, Li-Ne : W. J. Hehre, R. Ditchfield and J.A. Pople, J. Chem. Phys. 56, 2257 (1972).
                 Note: He and Ne are unpublished basis sets taken from the Gaussian program.
                 Note: Li and B from J. D. Dill and J. A. Pople, J. Chem. Phys. 62, 2921 (1975).
   Na - Ar     : M. M. Francl, W. J. Pietro, W. J. Hehre, J. S. Binkley, M. S. Gordon, 
                 D. J. DeFrees and J. A. Pople, J. Chem. Phys. 77, 3654 (1982).
   K - Zn      : V. A. Rassolov, J. A. Pople, M. A. Ratner, and T. L. Windus, J. Chem. Phys. 109, 1223 (1998).
   Additional Pol./Diff. from the 6-311G equivalent.

----- AuxJ basis set information -----
Your calculation utilizes the auxiliary basis: def2/J
   H-Rn: F. Weigend, Phys. Chem. Chem. Phys. 8, 1057 (2006).
   Fr-Lr: K. Eichkorn, F. Weigend, O. Treutler, R. Ahlrichs; Theor. Chem. Acc. 97, 119 (1997).

================================================================================
                                        WARNINGS
                       Please study these warnings very carefully!
================================================================================


WARNING: CIS/ROCIS methods need fully converged wavefunctions
  ===> : Setting SCFConvForced true
         You can overwrite this default with %scf ConvForced false 


================================================================================
                                       INPUT FILE
================================================================================
NAME = td.inp
|  1> # diketo / diketo_c012 / b3lyp_631+gd / solvent=ethanol
|  2> ! B3LYP 6-31+G(d) RIJCOSX def2/J TightSCF CPCM(Ethanol)
|  3> %pal nprocs 4 end
|  4> %maxcore 2500
|  5> %scf
|  6>   MaxIter 300
|  7> end
|  8> %tddft
|  9>   nroots 22
| 10>   tda    true
| 11>   maxdim 5
| 12> end
| 13> * xyz 0 1
| 14> C     -4.7481213639    -0.2803802317    -1.9986469934
| 15> C     -4.8591294195     0.3387576940    -0.5931262351
| 16> C     -5.2718757085     1.8224677007    -0.7463184521
| 17> C     -5.9576834901    -0.4219085118     0.1877443496
| 18> C     -3.5345898692     0.2574270905     0.1872695327
| 19> C     -3.4536669950     0.7802791014     1.4970092710
| 20> C     -2.2754012467     0.7215448508     2.2327277587
| 21> C     -1.1144163075     0.1338339206     1.6933666928
| 22> C     -1.1835249463    -0.3884099148     0.3920071731
| 23> C     -2.3709550976    -0.3251228394    -0.3438283206
| 24> C      0.1238652160     0.0968774310     2.5286819893
| 25> O      0.1323162705     0.5509949139     3.6627000397
| 26> C      1.3932914960    -0.5237615534     1.9587123071
| 27> C      2.1493014758     0.4416408374     1.0434938621
| 28> O      1.7302620143     1.5783622590     0.8714537886
| 29> C      3.4015640409    -0.0334140269     0.3966610766
| 30> C      4.1020600055     0.8518306657    -0.4437425334
| 31> C      5.2818654806     0.4758037819    -1.0805950836
| 32> C      5.7944998419    -0.8220891295    -0.8822716091
| 33> O      6.9243489852    -1.2875048106    -1.4481485898
| 34> C      7.6825430949    -0.4453609620    -2.3086276566
| 35> C      5.1038165119    -1.7192789898    -0.0410471828
| 36> C      3.9280832639    -1.3298525257     0.5862958151
| 37> H     -4.4845718327    -1.3491707045    -1.9569045214
| 38> H     -5.7177117488    -0.1962126192    -2.5145240787
| 39> H     -3.9959325058     0.2351748412    -2.6167562694
| 40> H     -5.4190305694     2.3117925201     0.2288400494
| 41> H     -4.5068206402     2.3898400977    -1.3010630586
| 42> H     -6.2202165082     1.8939509070    -1.3040764128
| 43> H     -5.6899287374    -1.4839559554     0.3118786547
| 44> H     -6.9130294907    -0.3730141672    -0.3604024336
| 45> H     -6.1233547588     0.0066228796     1.1883648094
| 46> H     -4.3314874120     1.2443457538     1.9529301629
| 47> H     -2.2326117302     1.1322410950     3.2437625421
| 48> H     -0.3112086337    -0.8546806375    -0.0705411701
| 49> H     -2.3740379634    -0.7447054664    -1.3499771237
| 50> H      1.1846463117    -1.4628411170     1.4234071172
| 51> H      2.0465518552    -0.7752468574     2.8096746109
| 52> H      3.7002948182     1.8563397777    -0.5928270181
| 53> H      5.7956677532     1.1895696509    -1.7249578296
| 54> H      8.5441413030    -1.0397657528    -2.6390169090
| 55> H      7.0937943392    -0.1362507818    -3.1885880118
| 56> H      8.0409027232     0.4522839697    -1.7774062028
| 57> H      5.5154028348    -2.7207877797     0.1030946246
| 58> H      3.4200873500    -2.0482664153     1.2325658984
| 59> *
| 60> 
| 61>                          ****END OF INPUT****
================================================================================

                       ****************************
                       * Single Point Calculation *
                       ****************************

---------------------------------
CARTESIAN COORDINATES (ANGSTROEM)
---------------------------------
  C     -4.748121   -0.280380   -1.998647
  C     -4.859129    0.338758   -0.593126
  C     -5.271876    1.822468   -0.746318
  C     -5.957683   -0.421909    0.187744
  C     -3.534590    0.257427    0.187270
  C     -3.453667    0.780279    1.497009
  C     -2.275401    0.721545    2.232728
  C     -1.114416    0.133834    1.693367
  C     -1.183525   -0.388410    0.392007
  C     -2.370955   -0.325123   -0.343828
  C      0.123865    0.096877    2.528682
  O      0.132316    0.550995    3.662700
  C      1.393291   -0.523762    1.958712
  C      2.149301    0.441641    1.043494
  O      1.730262    1.578362    0.871454
  C      3.401564   -0.033414    0.396661
  C      4.102060    0.851831   -0.443743
  C      5.281865    0.475804   -1.080595
  C      5.794500   -0.822089   -0.882272
  O      6.924349   -1.287505   -1.448149
  C      7.682543   -0.445361   -2.308628
  C      5.103817   -1.719279   -0.041047
  C      3.928083   -1.329853    0.586296
  H     -4.484572   -1.349171   -1.956905
  H     -5.717712   -0.196213   -2.514524
  H     -3.995933    0.235175   -2.616756
  H     -5.419031    2.311793    0.228840
  H     -4.506821    2.389840   -1.301063
  H     -6.220217    1.893951   -1.304076
  H     -5.689929   -1.483956    0.311879
  H     -6.913029   -0.373014   -0.360402
  H     -6.123355    0.006623    1.188365
  H     -4.331487    1.244346    1.952930
  H     -2.232612    1.132241    3.243763
  H     -0.311209   -0.854681   -0.070541
  H     -2.374038   -0.744705   -1.349977
  H      1.184646   -1.462841    1.423407
  H      2.046552   -0.775247    2.809675
  H      3.700295    1.856340   -0.592827
  H      5.795668    1.189570   -1.724958
  H      8.544141   -1.039766   -2.639017
  H      7.093794   -0.136251   -3.188588
  H      8.040903    0.452284   -1.777406
  H      5.515403   -2.720788    0.103095
  H      3.420087   -2.048266    1.232566

----------------------------
CARTESIAN COORDINATES (A.U.)
----------------------------
  NO LB      ZA    FRAG     MASS         X           Y           Z
   0 C     6.0000    0    12.011   -8.972649   -0.529842   -3.776895
   1 C     6.0000    0    12.011   -9.182424    0.640159   -1.120846
   2 C     6.0000    0    12.011   -9.962401    3.443965   -1.410337
   3 C     6.0000    0    12.011  -11.258390   -0.797292    0.354785
   4 C     6.0000    0    12.011   -6.679407    0.486467    0.353888
   5 C     6.0000    0    12.011   -6.526485    1.474514    2.828938
   6 C     6.0000    0    12.011   -4.299885    1.363522    4.219244
   7 C     6.0000    0    12.011   -2.105942    0.252909    3.199999
   8 C     6.0000    0    12.011   -2.236538   -0.733988    0.740786
   9 C     6.0000    0    12.011   -4.480456   -0.614393   -0.649741
  10 C     6.0000    0    12.011    0.234071    0.183072    4.778516
  11 O     8.0000    0    15.999    0.250042    1.041229    6.921500
  12 C     6.0000    0    12.011    2.632939   -0.989766    3.701430
  13 C     6.0000    0    12.011    4.061591    0.834580    1.971918
  14 O     8.0000    0    15.999    3.269721    2.982672    1.646809
  15 C     6.0000    0    12.011    6.428024   -0.063143    0.749581
  16 C     6.0000    0    12.011    7.751770    1.609727   -0.838552
  17 C     6.0000    0    12.011    9.981279    0.899139   -2.042029
  18 C     6.0000    0    12.011   10.950018   -1.553523   -1.667252
  19 O     8.0000    0    15.999   13.085123   -2.433031   -2.736604
  20 C     6.0000    0    12.011   14.517902   -0.841610   -4.362674
  21 C     6.0000    0    12.011    9.644815   -3.248966   -0.077568
  22 C     6.0000    0    12.011    7.423002   -2.513057    1.107939
  23 H     1.0000    0     1.008   -8.474613   -2.549563   -3.698014
  24 H     1.0000    0     1.008  -10.804909   -0.370788   -4.751762
  25 H     1.0000    0     1.008   -7.551218    0.444416   -4.944953
  26 H     1.0000    0     1.008  -10.240484    4.368655    0.432445
  27 H     1.0000    0     1.008   -8.516657    4.516143   -2.458653
  28 H     1.0000    0     1.008  -11.754506    3.579049   -2.464347
  29 H     1.0000    0     1.008  -10.752407   -2.804270    0.589365
  30 H     1.0000    0     1.008  -13.063732   -0.704895   -0.681062
  31 H     1.0000    0     1.008  -11.571464    0.012515    2.245684
  32 H     1.0000    0     1.008   -8.185325    2.351473    3.690503
  33 H     1.0000    0     1.008   -4.219025    2.139626    6.129823
  34 H     1.0000    0     1.008   -0.588099   -1.615112   -0.133303
  35 H     1.0000    0     1.008   -4.486282   -1.407289   -2.551087
  36 H     1.0000    0     1.008    2.238657   -2.764369    2.689850
  37 H     1.0000    0     1.008    3.867423   -1.465004    5.309516
  38 H     1.0000    0     1.008    6.992544    3.507974   -1.120281
  39 H     1.0000    0     1.008   10.952225    2.247961   -3.259698
  40 H     1.0000    0     1.008   16.146087   -1.964873   -4.987019
  41 H     1.0000    0     1.008   13.405329   -0.257477   -6.025558
  42 H     1.0000    0     1.008   15.195104    0.854693   -3.358811
  43 H     1.0000    0     1.008   10.422601   -5.141544    0.194821
  44 H     1.0000    0     1.008    6.463028   -3.870663    2.329212

--------------------------------
INTERNAL COORDINATES (ANGSTROEM)
--------------------------------
 C      0   0   0     0.000000000000     0.00000000     0.00000000
 C      1   0   0     1.539851668655     0.00000000     0.00000000
 C      2   1   0     1.547650715896   108.32108343     0.00000000
 C      2   1   3     1.547641105918   108.30591550   118.53733409
 C      2   1   3     1.539492527353   112.29838040   239.21433574
 C      5   2   1     1.412565368028   119.98357621   179.89826990
 C      6   5   2     1.390338656211   121.57123126   179.83930745
 C      7   6   5     1.408616529058   120.89668317   359.96522780
 C      8   7   6     1.403941318960   118.00534862     0.06558165
 C      9   8   7     1.398373874154   120.84542083     0.00000000
 C      8   7   6     1.494141411692   118.64093323   180.04898840
 O     11   8   7     1.221593650618   121.03223216     0.84800318
 C     11   8   7     1.523647356818   119.43395103   180.52443021
 C     13  11   8     1.530090738416   112.23483167    80.97376691
 O     14  13  11     1.223653319984   120.06714352     1.77211613
 C     14  13  11     1.487357155643   118.33349771   180.87306440
 C     16  14  13     1.407348922584   118.54555883   180.13519724
 C     17  16  14     1.392450482822   121.66696939   179.91282532
 C     18  17  16     1.409486501668   119.50330015   359.92974906
 O     19  18  17     1.346620807843   124.35246661   179.99651238
 C     20  19  18     1.422845316301   119.77948952     0.09802291
 C     19  18  17     1.410550120757   119.44075915     0.00000000
 C     22  19  18     1.388366262342   120.37998041     0.06356838
 H      1   2   3     1.101596053058   111.88608685   181.67008808
 H      1   2   3     1.101507543607   109.46929203   300.86282570
 H      1   2   3     1.101655204009   111.91214563    60.07242314
 H      3   2   1     1.100921175659   111.96724700   177.09089732
 H      3   2   1     1.102253270737   110.98863321   297.92225517
 H      3   2   1     1.102521684087   109.97618121    57.37079186
 H      4   2   1     1.102291570209   110.97463686    62.11941361
 H      4   2   1     1.102516001575   110.02453709   302.63635065
 H      4   2   1     1.101057413243   111.96516616   182.89469042
 H      6   5   2     1.092607158151   119.87365053   359.82892689
 H      7   6   5     1.092105160214   120.47759028   179.94785303
 H      9   8   7     1.091922664786   120.80891073   180.04044599
 H     10   9   8     1.090135082878   118.07649533   180.00459323
 H     13  11   8     1.100888225951   111.80580781   316.89408934
 H     13  11   8     1.101876035459   107.33828046   199.78211955
 H     17  16  14     1.092098899091   118.48798212   359.89194637
 H     18  17  16     1.090255859654   119.52576028   179.94972844
 H     21  20  19     1.097645473561   106.24794050   179.93995625
 H     21  20  19     1.102952595339   111.34136598   298.86081543
 H     21  20  19     1.102898127471   111.32014950    61.02710654
 H     22  19  18     1.092336952632   118.51349927   180.08877053
 H     23  22  19     1.091715799042   118.48714489   180.13936843

---------------------------
INTERNAL COORDINATES (A.U.)
---------------------------
 C      0   0   0     0.000000000000     0.00000000     0.00000000
 C      1   0   0     2.909897940620     0.00000000     0.00000000
 C      2   1   0     2.924636004011   108.32108343     0.00000000
 C      2   1   3     2.924617843784   108.30591550   118.53733409
 C      2   1   3     2.909219261915   112.29838040   239.21433574
 C      5   2   1     2.669361691835   119.98357621   179.89826990
 C      6   5   2     2.627359293643   121.57123126   179.83930745
 C      7   6   5     2.661899467634   120.89668317   359.96522780
 C      8   7   6     2.653064600931   118.00534862     0.06558165
 C      9   8   7     2.642543654982   120.84542083     0.00000000
 C      8   7   6     2.823518073448   118.64093323   180.04898840
 O     11   8   7     2.308477446605   121.03223216     0.84800318
 C     11   8   7     2.879276229059   119.43395103   180.52443021
 C     13  11   8     2.891452455656   112.23483167    80.97376691
 O     14  13  11     2.312369657634   120.06714352     1.77211613
 C     14  13  11     2.810697687494   118.33349771   180.87306440
 C     16  14  13     2.659504038553   118.54555883   180.13519724
 C     17  16  14     2.631350067581   121.66696939   179.91282532
 C     18  17  16     2.663543477612   119.50330015   359.92974906
 O     19  18  17     2.544744533063   124.35246661   179.99651238
 C     20  19  18     2.688787978741   119.77948952     0.09802291
 C     19  18  17     2.665553426401   119.44075915     0.00000000
 C     22  19  18     2.623632009401   120.37998041     0.06356838
 H      1   2   3     2.081714850488   111.88608685   181.67008808
 H      1   2   3     2.081547591865   109.46929203   300.86282570
 H      1   2   3     2.081826629586   111.91214563    60.07242314
 H      3   2   1     2.080439517031   111.96724700   177.09089732
 H      3   2   1     2.082956811911   110.98863321   297.92225517
 H      3   2   1     2.083464039635   109.97618121    57.37079186
 H      4   2   1     2.083029187425   110.97463686    62.11941361
 H      4   2   1     2.083453301243   110.02453709   302.63635065
 H      4   2   1     2.080696968754   111.96516616   182.89469042
 H      6   5   2     2.064728300867   119.87365053   359.82892689
 H      7   6   5     2.063779662247   120.47759028   179.94785303
 H      9   8   7     2.063434795866   120.80891073   180.04044599
 H     10   9   8     2.060056755619   118.07649533   180.00459323
 H     13  11   8     2.080377251105   111.80580781   316.89408934
 H     13  11   8     2.082243940548   107.33828046   199.78211955
 H     17  16  14     2.063767830439   118.48798212   359.89194637
 H     18  17  16     2.060284990650   119.52576028   179.94972844
 H     21  20  19     2.074249337168   106.24794050   179.93995625
 H     21  20  19     2.084278343889   111.34136598   298.86081543
 H     21  20  19     2.084175414535   111.32014950    61.02710654
 H     22  19  18     2.064217686437   118.51349927   180.08877053
 H     23  22  19     2.063043876264   118.48714489   180.13936843

---------------------
BASIS SET INFORMATION
---------------------
There are 3 groups of distinct atoms

 Group   1 Type C   : 11s5p1d contracted to 4s3p1d pattern {6311/311/1}
 Group   2 Type O   : 11s5p1d contracted to 4s3p1d pattern {6311/311/1}
 Group   3 Type H   : 4s contracted to 2s pattern {31}

Atom   0C    basis set group =>   1
Atom   1C    basis set group =>   1
Atom   2C    basis set group =>   1
Atom   3C    basis set group =>   1
Atom   4C    basis set group =>   1
Atom   5C    basis set group =>   1
Atom   6C    basis set group =>   1
Atom   7C    basis set group =>   1
Atom   8C    basis set group =>   1
Atom   9C    basis set group =>   1
Atom  10C    basis set group =>   1
Atom  11O    basis set group =>   2
Atom  12C    basis set group =>   1
Atom  13C    basis set group =>   1
Atom  14O    basis set group =>   2
Atom  15C    basis set group =>   1
Atom  16C    basis set group =>   1
Atom  17C    basis set group =>   1
Atom  18C    basis set group =>   1
Atom  19O    basis set group =>   2
Atom  20C    basis set group =>   1
Atom  21C    basis set group =>   1
Atom  22C    basis set group =>   1
Atom  23H    basis set group =>   3
Atom  24H    basis set group =>   3
Atom  25H    basis set group =>   3
Atom  26H    basis set group =>   3
Atom  27H    basis set group =>   3
Atom  28H    basis set group =>   3
Atom  29H    basis set group =>   3
Atom  30H    basis set group =>   3
Atom  31H    basis set group =>   3
Atom  32H    basis set group =>   3
Atom  33H    basis set group =>   3
Atom  34H    basis set group =>   3
Atom  35H    basis set group =>   3
Atom  36H    basis set group =>   3
Atom  37H    basis set group =>   3
Atom  38H    basis set group =>   3
Atom  39H    basis set group =>   3
Atom  40H    basis set group =>   3
Atom  41H    basis set group =>   3
Atom  42H    basis set group =>   3
Atom  43H    basis set group =>   3
Atom  44H    basis set group =>   3
---------------------------------
AUXILIARY/J BASIS SET INFORMATION
---------------------------------
There are 3 groups of distinct atoms

 Group   1 Type C   : 12s5p4d2f1g contracted to 6s4p3d1f1g pattern {711111/2111/211/2/1}
 Group   2 Type O   : 12s5p4d2f1g contracted to 6s4p3d1f1g pattern {711111/2111/211/2/1}
 Group   3 Type H   : 5s2p1d contracted to 3s1p1d pattern {311/2/1}

Atom   0C    basis set group =>   1
Atom   1C    basis set group =>   1
Atom   2C    basis set group =>   1
Atom   3C    basis set group =>   1
Atom   4C    basis set group =>   1
Atom   5C    basis set group =>   1
Atom   6C    basis set group =>   1
Atom   7C    basis set group =>   1
Atom   8C    basis set group =>   1
Atom   9C    basis set group =>   1
Atom  10C    basis set group =>   1
Atom  11O    basis set group =>   2
Atom  12C    basis set group =>   1
Atom  13C    basis set group =>   1
Atom  14O    basis set group =>   2
Atom  15C    basis set group =>   1
Atom  16C    basis set group =>   1
Atom  17C    basis set group =>   1
Atom  18C    basis set group =>   1
Atom  19O    basis set group =>   2
Atom  20C    basis set group =>   1
Atom  21C    basis set group =>   1
Atom  22C    basis set group =>   1
Atom  23H    basis set group =>   3
Atom  24H    basis set group =>   3
Atom  25H    basis set group =>   3
Atom  26H    basis set group =>   3
Atom  27H    basis set group =>   3
Atom  28H    basis set group =>   3
Atom  29H    basis set group =>   3
Atom  30H    basis set group =>   3
Atom  31H    basis set group =>   3
Atom  32H    basis set group =>   3
Atom  33H    basis set group =>   3
Atom  34H    basis set group =>   3
Atom  35H    basis set group =>   3
Atom  36H    basis set group =>   3
Atom  37H    basis set group =>   3
Atom  38H    basis set group =>   3
Atom  39H    basis set group =>   3
Atom  40H    basis set group =>   3
Atom  41H    basis set group =>   3
Atom  42H    basis set group =>   3
Atom  43H    basis set group =>   3
Atom  44H    basis set group =>   3


           ************************************************************
           *        Program running with 4 parallel MPI-processes     *
           *              working on a common directory               *
           ************************************************************
------------------------------------------------------------------------------
                             ORCA STARTUP CALCULATIONS
                           -- RI-GTO INTEGRALS CHOSEN --
------------------------------------------------------------------------------
------------------------------------------------------------------------------
                   ___                                                        
                  /   \      - P O W E R E D   B Y -                         
                 /     \                                                     
                 |  |  |   _    _      __       _____    __    __             
                 |  |  |  | |  | |    /  \     |  _  \  |  |  /  |          
                  \  \/   | |  | |   /    \    | | | |  |  | /  /          
                 / \  \   | |__| |  /  /\  \   | |_| |  |  |/  /          
                |  |  |   |  __  | /  /__\  \  |    /   |      \           
                |  |  |   | |  | | |   __   |  |    \   |  |\   \          
                \     /   | |  | | |  |  |  |  | |\  \  |  | \   \       
                 \___/    |_|  |_| |__|  |__|  |_| \__\ |__|  \__/        
                                                                              
                      - O R C A' S   B I G   F R I E N D -                    
                                      &                                       
                       - I N T E G R A L  F E E D E R -                       
                                                                              
 v1 FN, 2020, v2 2021, v3 2022-2024                                           
------------------------------------------------------------------------------


----------------------
SHARK INTEGRAL PACKAGE
----------------------

Number of atoms                             ...     45
Number of basis functions                   ...    458
Number of shells                            ...    228
Maximum angular momentum                    ...      2
Integral batch strategy                     ... SHARK/LIBINT Hybrid
RI-J (if used) integral strategy            ... SPLIT-RIJ (Revised 2003 algorithm where possible)
Printlevel                                  ...      1
Contraction scheme used                     ... SEGMENTED contraction
Prescreening option                         ... SCHWARTZ
   Thresh                                   ... 2.500e-11
   Tcut                                     ... 2.500e-12
   Tpresel                                  ... 2.500e-12 
Coulomb Range Separation                    ... NOT USED
Exchange Range Separation                   ... NOT USED
Multipole approximations                    ... NOT USED
Finite Nucleus Model                        ... NOT USED
CABS basis                                  ... NOT available
Auxiliary Coulomb fitting basis             ... AVAILABLE
   # of basis functions in Aux-J            ...   1369
   # of shells in Aux-J                     ...    455
   Maximum angular momentum in Aux-J        ...      4
Auxiliary J/K fitting basis                 ... NOT available
Auxiliary Correlation fitting basis         ... NOT available
Auxiliary 'external' fitting basis          ... NOT available

Checking pre-screening integrals            ... done (  0.0 sec) Dimension = 228
   => SHARK Basis and OBASIS are compatible. Storing Pre-screening
Shell pair information
Shell pair cut-off parameter TPreSel        ...   2.5e-12
Total number of shell pairs                 ...     26106
Shell pairs after pre-screening             ...     19196
Total number of primitive shell pairs       ...    115509
Primitive shell pairs kept                  ...     51946
          la=0 lb=0:   6370 shell pairs
          la=1 lb=0:   7479 shell pairs
          la=1 lb=1:   2125 shell pairs
          la=2 lb=0:   1875 shell pairs
          la=2 lb=1:   1203 shell pairs
          la=2 lb=2:    144 shell pairs

Checking whether 4 symmetric matrices of dimension 458 fit in memory
:Max Core in MB      =   2500.00
 MB in use           =     22.80
 MB left             =   2477.20
 MB needed           =      3.21
 Data fit in memory  = YES
Calculating RI/J V-Matrix + Cholesky decomp.... done (  0.1 sec)
Calculating Nuclear repulsion               ... done (  0.0 sec) ENN=   1752.624531506003 Eh

Diagonalization of the overlap matrix:
Smallest eigenvalue                        ... 2.657e-07
Time for diagonalization                   ...    0.027 sec
Threshold for overlap eigenvalues          ... 1.000e-07
Number of eigenvalues below threshold      ... 0

IMPORTANT:
Smallest eigenvalue of S below the DiffSThresh (1.000e-06) while
Thresh>1e-12 and/or TCut>1e-13! In order to avoid SCF convergence issues,
Thresh will be set to at least 1e-12 and TCut to at least 1e-13.
This can be turned off by adding %SCF DiffSThresh -1 END to the input.

Time for construction of square roots      ...    0.020 sec
Total time needed                          ...    0.050 sec

-------------------
DFT GRID GENERATION
-------------------

General Integration Accuracy     IntAcc      ... 4.388
Radial Grid Type                 RadialGrid  ... OptM3 with GC (2021)
Angular Grid (max. ang.)         AngularGrid ... 4 (Lebedev-302)
Angular grid pruning method      GridPruning ... 4 (adaptive)
Weight generation scheme         WeightScheme... mBecke (2022)
Basis function cutoff            BFCut       ... 1.0000e-11
Integration weight cutoff        WCut        ... 1.0000e-14
Partially contracted basis set               ... off
Rotationally invariant grid construction     ... off
Angular grids for H and He will be reduced by one unit
Diffuse basis detected: some atoms will have their outermost
                        angular grid increased by 1.

Total number of grid points                  ...   213229
Total number of batches                      ...     3357
Average number of points per batch           ...       63
Average number of grid points per atom       ...     4738

--------------------
COSX GRID GENERATION
--------------------

GRIDX 1
-------
General Integration Accuracy     IntAcc      ... 3.816
Radial Grid Type                 RadialGrid  ... OptM3 with GC (2021)
Angular Grid (max. ang.)         AngularGrid ... 1 (Lebedev-50)
Angular grid pruning method      GridPruning ... 4 (adaptive)
Weight generation scheme         WeightScheme... mBecke (2022)
Basis function cutoff            BFCut       ... 1.0000e-11
Integration weight cutoff        WCut        ... 1.0000e-14
Partially contracted basis set               ... on
Rotationally invariant grid construction     ... off
Angular grids for H and He will be reduced by one unit
Diffuse basis detected: some atoms will have their outermost
                        angular grid increased by 1.

Total number of grid points                  ...    27190
Total number of batches                      ...      239
Average number of points per batch           ...      113
Average number of grid points per atom       ...      604
UseSFitting                                  ... on

GRIDX 2
-------
General Integration Accuracy     IntAcc      ... 4.020
Radial Grid Type                 RadialGrid  ... OptM3 with GC (2021)
Angular Grid (max. ang.)         AngularGrid ... 2 (Lebedev-110)
Angular grid pruning method      GridPruning ... 4 (adaptive)
Weight generation scheme         WeightScheme... mBecke (2022)
Basis function cutoff            BFCut       ... 1.0000e-11
Integration weight cutoff        WCut        ... 1.0000e-14
Partially contracted basis set               ... on
Rotationally invariant grid construction     ... off
Angular grids for H and He will be reduced by one unit
Diffuse basis detected: some atoms will have their outermost
                        angular grid increased by 1.

Total number of grid points                  ...    62599
Total number of batches                      ...      515
Average number of points per batch           ...      121
Average number of grid points per atom       ...     1391
UseSFitting                                  ... on

GRIDX 3
-------
General Integration Accuracy     IntAcc      ... 4.338
Radial Grid Type                 RadialGrid  ... OptM3 with GC (2021)
Angular Grid (max. ang.)         AngularGrid ... 3 (Lebedev-194)
Angular grid pruning method      GridPruning ... 4 (adaptive)
Weight generation scheme         WeightScheme... mBecke (2022)
Basis function cutoff            BFCut       ... 1.0000e-11
Integration weight cutoff        WCut        ... 1.0000e-14
Partially contracted basis set               ... on
Rotationally invariant grid construction     ... off
Angular grids for H and He will be reduced by one unit
Diffuse basis detected: some atoms will have their outermost
                        angular grid increased by 1.

Total number of grid points                  ...   134989
Total number of batches                      ...     1077
Average number of points per batch           ...      125
Average number of grid points per atom       ...     3000
UseSFitting                                  ... on
Grids setup in   6.0 sec
Initializing property integral containers    ... done (  0.1 sec)

SHARK setup successfully completed in   6.7 seconds

Maximum memory used throughout the entire STARTUP-calculation: 68.6 MB


           ************************************************************
           *        Program running with 4 parallel MPI-processes     *
           *              working on a common directory               *
           ************************************************************
-------------------------------------------------------------------------------
                                 ORCA GUESS
                   Start orbitals & Density for SCF / CASSCF
-------------------------------------------------------------------------------

------------
SCF SETTINGS
------------
Hamiltonian:
 Density Functional     Method          .... DFT(GTOs)
 Exchange Functional    Exchange        .... B88
   X-Alpha parameter    XAlpha          ....  0.666667
   Becke's b parameter  XBeta           ....  0.004200
 Correlation Functional Correlation     .... LYP
 LDA part of GGA corr.  LDAOpt          .... VWN-5
 Gradients option       PostSCFGGA      .... off
 Hybrid DFT is turned on
   Fraction HF Exchange ScalHFX         ....  0.200000
   Scaling of DF-GGA-X  ScalDFX         ....  0.720000
   Scaling of DF-GGA-C  ScalDFC         ....  0.810000
   Scaling of DF-LDA-C  ScalLDAC        ....  1.000000
   Perturbative correction              ....  0.000000
   NL short-range parameter             ....  4.800000
 RI-approximation to the Coulomb term is turned on
   Number of AuxJ basis functions       .... 1369
   RIJ-COSX (HFX calculated with COS-X)).... on


General Settings:
 Integral files         IntName         .... td
 Hartree-Fock type      HFTyp           .... RHF
 Total Charge           Charge          ....    0
 Multiplicity           Mult            ....    1
 Number of Electrons    NEL             ....  166
 Basis Dimension        Dim             ....  458
 Nuclear Repulsion      ENuc            ....   1752.6245315060 Eh

Convergence Acceleration:
 AO-DIIS                CNVDIIS         .... on
   Start iteration      DIISMaxIt       ....    12
   Startup error        DIISStart       ....  0.200000
   # of expansion vecs  DIISMaxEq       ....     5
   Bias factor          DIISBfac        ....   1.050
   Max. coefficient     DIISMaxC        ....  10.000
 MO-DIIS                CNVKDIIS        .... off
 Trust-Rad. Augm. Hess. CNVTRAH         .... auto
   Auto Start mean grad. ratio tolernc. ....  1.125000
   Auto Start start iteration           ....    50
   Auto Start num. interpolation iter.  ....    10
   Max. Number of Micro iterations      ....    24
   Max. Number of Macro iterations      .... Maxiter - #DIIS iter
   Number of Davidson start vectors     ....     2
   Converg. threshold    (grad. norm)   ....   1.000e-05
   Grad. Scal. Fac. for Micro threshold ....   0.100
   Minimum threshold for Micro iter.    ....   1.000e-02
   NR start threshold (gradient norm)   ....   1.000e-04
   Initial trust radius                 ....   0.400
   Minimum AH scaling param. (alpha)    ....   1.000
   Maximum AH scaling param. (alpha)    .... 1000.000
   Quad. conv. algorithm                .... NR
   White noise on init. David. guess    .... on
   Maximum white noise                  ....   0.010
   Pseudo random numbers                .... off
   Inactive MOs                         .... canonical
   Orbital update algorithm             .... Taylor
   Preconditioner                       .... Diag
   Full preconditioner red. dimension   ....   250
 SOSCF                 CNVSOSCF           .... on
   Start iteration     SOSCFMaxIt         ....   150
   Startup grad/error  SOSCFStart         ....  0.003300
   Hessian update      SOSCFHessUp        .... L-BFGS
   Autom. constraints  SOSCFAutoConstrain .... off
 Level Shifting         CNVShift        .... on
   Level shift para.    LevelShift      ....    0.2500
   Turn off err/grad.   ShiftErr        ....    0.0010
 Zerner damping         CNVZerner       .... off
 Static damping         CNVDamp         .... on
   Fraction old density DampFac         ....    0.7000
   Max. Damping (<1)    DampMax         ....    0.9800
   Min. Damping (>=0)   DampMin         ....    0.0000
   Turn off err/grad.   DampErr         ....    0.1000

SCF Procedure:
 Maximum # iterations   MaxIter         ....   300
 SCF integral mode      SCFMode         .... Direct
   Integral package                     .... SHARK and LIBINT hybrid scheme
 Reset frequency        DirectResetFreq ....    20
 Integral Threshold     Thresh          ....  1.000e-12 Eh
 Primitive CutOff       TCut            ....  1.000e-13 Eh

Convergence Tolerance:
 Convergence Check Mode ConvCheckMode   .... Total+1el-Energy
 Convergence forced     ConvForced      .... 1
 Energy Change          TolE            ....  1.000e-08 Eh
 1-El. energy change                    ....  1.000e-05 Eh
 Orbital Gradient       TolG            ....  1.000e-05
 Orbital Rotation angle TolX            ....  1.000e-05
 DIIS Error             TolErr          ....  5.000e-07

------------------------------
INITIAL GUESS: MODEL POTENTIAL
------------------------------
Loading Hartree-Fock densities                     ... done
Calculating cut-offs                               ... done
Initializing the effective Hamiltonian             ... done
Setting up the integral package (SHARK)            ... done
Starting the Coulomb interaction                   ... done (   1.0 sec)
Making the grid                                    ... done (   1.0 sec)
Mapping shells                                     ... done
Starting the XC term evaluation                    ... done (   1.1 sec)
  promolecular density results
     # of electrons  =    165.990995898
     EX              =   -133.900406496
     EC              =     -5.587821068
     EX+EC           =   -139.488227564
Transforming the Hamiltonian                       ... done (   0.0 sec)
Diagonalizing the Hamiltonian                      ... done (   0.0 sec)
Back transforming the eigenvectors                 ... done (   0.0 sec)
Now organizing SCF variables                       ... done
                      ------------------
                      INITIAL GUESS DONE (   3.3 sec)
                      ------------------
             **** ENERGY FILE WAS UPDATED (td.en.tmp) ****
Finished Guess after   3.6 sec
Maximum memory used throughout the entire GUESS-calculation: 30.5 MB


           ************************************************************
           *        Program running with 4 parallel MPI-processes     *
           *              working on a common directory               *
           ************************************************************

-------------------------------------------------------------------------------------------
                                      ORCA LEAN-SCF
                              memory conserving SCF solver
-------------------------------------------------------------------------------------------

--------------------
CPCM SOLVATION MODEL
--------------------
CPCM parameters:
  Epsilon                                         ...      25.4510
  Refrac                                          ...       1.3611
  Rsolv                                           ...       1.3000
  Surface type                                    ... GAUSSIAN VDW
  Discretization scheme                           ... Constant charge density
    Threshold for H atoms                         ...       5.0000 (charges/Ang^2)
    Threshold for non-H atoms                     ...       5.0000 (charges/Ang^2)
  Epsilon function type                           ...         CPCM
Solvent:                                          ... ETHANOL
Radii:
  Scheme                                          ... Element-dependent radii
  Radius for C  used is    3.8550 Bohr (=   2.0400 Ang.)
  Radius for O  used is    3.4469 Bohr (=   1.8240 Ang.)
  Radius for H  used is    2.4944 Bohr (=   1.3200 Ang.)
Calculating surface                               ...        done! (  0.0s)
Cavity surface points                             ...         3826
Cavity Volume                                     ...    2650.1710
Cavity Surface-area                               ...    1364.3424
Calculating surface distance matrix               ...        done! (  0.2s)
Performing Cholesky decomposition & store         ...        done! (  0.7s)
Overall time for CPCM initialization              ...                 0.9s

----------------------------------------D-I-I-S--------------------------------------------
Iteration    Energy (Eh)           Delta-E    RMSDP     MaxDP     DIISErr   Damp  Time(sec)
-------------------------------------------------------------------------------------------
               ***  Starting incremental Fock matrix formation  ***
    1    -999.9223045614353396     0.00e+00  5.81e-02  3.06e+00  2.47e-01  0.700  32.9
    2    -1000.1805303784331045    -2.58e-01  5.29e-02  2.73e+00  9.62e-02  0.700  15.5
                               ***Turning on AO-DIIS***
    3    -1000.2837543726996046    -1.03e-01  3.79e-02  1.92e+00  3.29e-02  0.700  15.8
    4    -1000.3457815781071076    -6.20e-02  1.31e-01  7.75e+00  1.57e-02  0.000  16.3
    5    -1000.4805039835218849    -1.35e-01  2.23e-02  1.04e+00  5.67e-03  0.000  17.6
                              *** Initializing SOSCF ***
---------------------------------------S-O-S-C-F--------------------------------------
Iteration    Energy (Eh)           Delta-E    RMSDP     MaxDP     MaxGrad    Time(sec)
--------------------------------------------------------------------------------------
    6    -1000.4812632715620566    -7.59e-04  6.44e-03  3.09e-01  1.00e-03    14.5
               *** Restarting incremental Fock matrix formation ***
    7    -1000.4811833595176722     7.99e-05  4.88e-03  1.46e-01  2.24e-04    30.0
    8    -1000.4811860991680987    -2.74e-06  1.40e-03  4.96e-02  2.68e-04    26.3
    9    -1000.4811889285483630    -2.83e-06  1.25e-03  3.88e-02  1.23e-04    22.7
   10    -1000.4811892195111795    -2.91e-07  6.08e-04  2.08e-02  5.37e-05    21.4
   11    -1000.4811895256671050    -3.06e-07  7.80e-04  3.46e-02  1.49e-05    21.2
   12    -1000.4811895200950858     5.57e-09  2.79e-04  1.17e-02  2.16e-05    21.5
                 **** Energy Check signals convergence ****

               *****************************************************
               *                     SUCCESS                       *
               *           SCF CONVERGED AFTER  12 CYCLES          *
               *****************************************************

Recomputing exchange energy using gridx3       ... done (   47.599 sec)
Old exchange energy                            :    -27.220301391 Eh
New exchange energy                            :    -27.220311321 Eh
Exchange energy change after final integration :     -0.000009931 Eh
Total energy after final integration           :  -1000.481199463 Eh
             **** ENERGY FILE WAS UPDATED (td.en.tmp) ****

----------------
TOTAL SCF ENERGY
----------------

Total Energy       :      -1000.48119946317149 Eh          -27224.47750 eV

Components:
Nuclear Repulsion  :       1752.62453150600277 Eh           47691.33808 eV
Electronic Energy  :      -2753.07630663778946 Eh          -74915.01491 eV
One Electron Energy:      -4839.01691275859594 Eh         -131676.34449 eV
Two Electron Energy:       2085.94060612080648 Eh           56761.32958 eV
CPCM Dielectric    :         -0.02941440072015 Eh              -0.80041 eV

Virial components:
Potential Energy   :      -1994.68501752612610 Eh          -54278.13877 eV
Kinetic Energy     :        994.20381806295461 Eh           27053.66127 eV
Virial Ratio       :          2.00631397836758

DFT components:
N(Alpha)           :       82.999911625213 electrons
N(Beta)            :       82.999911625213 electrons
N(Total)           :      165.999823250426 electrons
E(X)               :     -108.091865753261 Eh       
E(C)               :       -6.584297755492 Eh       
E(XC)              :     -114.676163508752 Eh       

CPCM Solvation Model Properties:
Surface-charge          :         -0.04425819286383
Corrected charge        :          0.00000000000000
Outlying charge corr.   :          0.00009268256573 Eh               0.00252 eV
Free-energy (cav+disp)  :  This term is not implemented in the current solvation scheme

---------------
SCF CONVERGENCE
---------------

  Last Energy change         ...   -5.5720e-09  Tolerance :   1.0000e-08
  Last MAX-Density change    ...    1.1728e-02  Tolerance :   1.0000e-07
  Last RMS-Density change    ...    2.7914e-04  Tolerance :   5.0000e-09
  Last DIIS Error            ...    1.0028e-03  Tolerance :   5.0000e-07
  Last Orbital Gradient      ...    2.1625e-05  Tolerance :   1.0000e-05
  Last Orbital Rotation      ...    2.8858e-05  Tolerance :   1.0000e-05


----------------
ORBITAL ENERGIES
----------------

  NO   OCC          E(Eh)            E(eV) 
   0   2.0000     -19.194800      -522.3171 
   1   2.0000     -19.151499      -521.1388 
   2   2.0000     -19.150833      -521.1207 
   3   2.0000     -10.290535      -280.0197 
   4   2.0000     -10.287286      -279.9313 
   5   2.0000     -10.267022      -279.3799 
   6   2.0000     -10.232143      -278.4308 
   7   2.0000     -10.205359      -277.7019 
   8   2.0000     -10.205324      -277.7010 
   9   2.0000     -10.202846      -277.6335 
  10   2.0000     -10.201449      -277.5955 
  11   2.0000     -10.200309      -277.5645 
  12   2.0000     -10.200218      -277.5620 
  13   2.0000     -10.199783      -277.5502 
  14   2.0000     -10.196324      -277.4561 
  15   2.0000     -10.196099      -277.4500 
  16   2.0000     -10.195216      -277.4259 
  17   2.0000     -10.194637      -277.4102 
  18   2.0000     -10.190473      -277.2969 
  19   2.0000     -10.190417      -277.2953 
  20   2.0000     -10.166116      -276.6341 
  21   2.0000     -10.166033      -276.6318 
  22   2.0000     -10.164211      -276.5823 
  23   2.0000      -1.086118       -29.5548 
  24   2.0000      -1.059275       -28.8243 
  25   2.0000      -1.051224       -28.6052 
  26   2.0000      -0.868780       -23.6407 
  27   2.0000      -0.866752       -23.5855 
  28   2.0000      -0.819213       -22.2919 
  29   2.0000      -0.789491       -21.4831 
  30   2.0000      -0.770278       -20.9603 
  31   2.0000      -0.760126       -20.6841 
  32   2.0000      -0.752413       -20.4742 
  33   2.0000      -0.740535       -20.1510 
  34   2.0000      -0.709175       -19.2976 
  35   2.0000      -0.681366       -18.5409 
  36   2.0000      -0.680261       -18.5108 
  37   2.0000      -0.646895       -17.6029 
  38   2.0000      -0.624772       -17.0009 
  39   2.0000      -0.617872       -16.8132 
  40   2.0000      -0.606702       -16.5092 
  41   2.0000      -0.573880       -15.6161 
  42   2.0000      -0.551400       -15.0044 
  43   2.0000      -0.549508       -14.9529 
  44   2.0000      -0.540741       -14.7143 
  45   2.0000      -0.507283       -13.8039 
  46   2.0000      -0.500645       -13.6232 
  47   2.0000      -0.487377       -13.2622 
  48   2.0000      -0.475065       -12.9272 
  49   2.0000      -0.474170       -12.9028 
  50   2.0000      -0.468848       -12.7580 
  51   2.0000      -0.456361       -12.4182 
  52   2.0000      -0.453659       -12.3447 
  53   2.0000      -0.448653       -12.2085 
  54   2.0000      -0.437436       -11.9032 
  55   2.0000      -0.435312       -11.8454 
  56   2.0000      -0.432986       -11.7822 
  57   2.0000      -0.432847       -11.7784 
  58   2.0000      -0.423487       -11.5237 
  59   2.0000      -0.418527       -11.3887 
  60   2.0000      -0.415808       -11.3147 
  61   2.0000      -0.400563       -10.8999 
  62   2.0000      -0.396834       -10.7984 
  63   2.0000      -0.396134       -10.7794 
  64   2.0000      -0.387872       -10.5545 
  65   2.0000      -0.385684       -10.4950 
  66   2.0000      -0.372532       -10.1371 
  67   2.0000      -0.370173       -10.0729 
  68   2.0000      -0.367225        -9.9927 
  69   2.0000      -0.361421        -9.8348 
  70   2.0000      -0.356351        -9.6968 
  71   2.0000      -0.353249        -9.6124 
  72   2.0000      -0.335391        -9.1265 
  73   2.0000      -0.330882        -9.0038 
  74   2.0000      -0.328829        -8.9479 
  75   2.0000      -0.326168        -8.8755 
  76   2.0000      -0.316944        -8.6245 
  77   2.0000      -0.274336        -7.4651 
  78   2.0000      -0.268346        -7.3021 
  79   2.0000      -0.262717        -7.1489 
  80   2.0000      -0.261057        -7.1037 
  81   2.0000      -0.254032        -6.9126 
  82   2.0000      -0.237633        -6.4663 
  83   0.0000      -0.068463        -1.8630 
  84   0.0000      -0.064406        -1.7526 
  85   0.0000      -0.020801        -0.5660 
  86   0.0000      -0.016003        -0.4355 
  87   0.0000       0.002987         0.0813 
  88   0.0000       0.011578         0.3150 
  89   0.0000       0.019425         0.5286 
  90   0.0000       0.024397         0.6639 
  91   0.0000       0.027142         0.7386 
  92   0.0000       0.028131         0.7655 
  93   0.0000       0.030715         0.8358 
*Only the first 10 virtual orbitals were printed.

                    ********************************
                    * MULLIKEN POPULATION ANALYSIS *
                    ********************************

-----------------------
MULLIKEN ATOMIC CHARGES
-----------------------
   0 C :   -0.566923
   1 C :    0.456478
   2 C :   -0.691692
   3 C :   -0.682183
   4 C :   -0.096931
   5 C :   -0.190714
   6 C :    0.004344
   7 C :    0.709398
   8 C :   -0.852344
   9 C :   -0.826177
  10 C :    0.484937
  11 O :   -0.489442
  12 C :   -0.770424
  13 C :    0.496478
  14 O :   -0.452020
  15 C :    0.643544
  16 C :   -0.464170
  17 C :    0.369155
  18 C :    0.021126
  19 O :   -0.399181
  20 C :   -0.365145
  21 C :   -1.052810
  22 C :   -0.283342
  23 H :    0.225925
  24 H :    0.220971
  25 H :    0.225886
  26 H :    0.223383
  27 H :    0.223638
  28 H :    0.219893
  29 H :    0.223435
  30 H :    0.219775
  31 H :    0.223391
  32 H :    0.210243
  33 H :    0.224410
  34 H :    0.214382
  35 H :    0.206749
  36 H :    0.278012
  37 H :    0.281314
  38 H :    0.227651
  39 H :    0.221176
  40 H :    0.227140
  41 H :    0.227333
  42 H :    0.227533
  43 H :    0.220683
  44 H :    0.225116
Sum of atomic charges:   -0.0000000

--------------------------------
MULLIKEN REDUCED ORBITAL CHARGES
--------------------------------
  0 C s       :     3.459722  s :     3.459722
      pz      :     0.914788  p :     3.072671
      px      :     1.099333
      py      :     1.058551
      dz2     :     0.006499  d :     0.034530
      dxz     :     0.009891
      dyz     :     0.005105
      dx2y2   :     0.009062
      dxy     :     0.003973

  1 C s       :     2.831484  s :     2.831484
      pz      :     0.827331  p :     2.663493
      px      :     0.938842
      py      :     0.897321
      dz2     :     0.009441  d :     0.048544
      dxz     :     0.011122
      dyz     :     0.008828
      dx2y2   :     0.011068
      dxy     :     0.008086

  2 C s       :     3.555608  s :     3.555608
      pz      :     1.100698  p :     3.101577
      px      :     1.087936
      py      :     0.912942
      dz2     :     0.004965  d :     0.034508
      dxz     :     0.007844
      dyz     :     0.008130
      dx2y2   :     0.007338
      dxy     :     0.006231

  3 C s       :     3.548497  s :     3.548497
      pz      :     1.042825  p :     3.099168
      px      :     1.003673
      py      :     1.052670
      dz2     :     0.008006  d :     0.034517
      dxz     :     0.007599
      dyz     :     0.004665
      dx2y2   :     0.010416
      dxy     :     0.003831

  4 C s       :     2.981439  s :     2.981439
      pz      :     0.792172  p :     3.074944
      px      :     1.316726
      py      :     0.966046
      dz2     :     0.009956  d :     0.040548
      dxz     :     0.011004
      dyz     :     0.005947
      dx2y2   :     0.006804
      dxy     :     0.006837

  5 C s       :     3.099676  s :     3.099676
      pz      :     1.061268  p :     3.055356
      px      :     0.978151
      py      :     1.015937
      dz2     :     0.008468  d :     0.035682
      dxz     :     0.010863
      dyz     :     0.005553
      dx2y2   :     0.004791
      dxy     :     0.006007

  6 C s       :     3.259405  s :     3.259405
      pz      :     1.091206  p :     2.699780
      px      :     0.691757
      py      :     0.916818
      dz2     :     0.009361  d :     0.036472
      dxz     :     0.008995
      dyz     :     0.004879
      dx2y2   :     0.006264
      dxy     :     0.006973

  7 C s       :     2.950346  s :     2.950346
      pz      :     0.859213  p :     2.302372
      px      :     0.485975
      py      :     0.957184
      dz2     :     0.008783  d :     0.037884
      dxz     :     0.011964
      dyz     :     0.005737
      dx2y2   :     0.006500
      dxy     :     0.004901

  8 C s       :     3.252587  s :     3.252587
      pz      :     1.195252  p :     3.563100
      px      :     1.370366
      py      :     0.997481
      dz2     :     0.008967  d :     0.036657
      dxz     :     0.010619
      dyz     :     0.006214
      dx2y2   :     0.004641
      dxy     :     0.006216

  9 C s       :     3.406813  s :     3.406813
      pz      :     1.198610  p :     3.383709
      px      :     1.197342
      py      :     0.987757
      dz2     :     0.009296  d :     0.035654
      dxz     :     0.008930
      dyz     :     0.005060
      dx2y2   :     0.006214
      dxy     :     0.006153

 10 C s       :     3.347044  s :     3.347044
      pz      :     0.629679  p :     2.076759
      px      :     0.758051
      py      :     0.689030
      dz2     :     0.022765  d :     0.091259
      dxz     :     0.033591
      dyz     :     0.017503
      dx2y2   :     0.007649
      dxy     :     0.009752

 11 O s       :     3.935939  s :     3.935939
      pz      :     1.309447  p :     4.528361
      px      :     1.813651
      py      :     1.405263
      dz2     :     0.008787  d :     0.025142
      dxz     :     0.005912
      dyz     :     0.007961
      dx2y2   :     0.001426
      dxy     :     0.001056

 12 C s       :     3.777682  s :     3.777682
      pz      :     0.933948  p :     2.958177
      px      :     1.068546
      py      :     0.955682
      dz2     :     0.003446  d :     0.034565
      dxz     :     0.009741
      dyz     :     0.008435
      dx2y2   :     0.006703
      dxy     :     0.006241

 13 C s       :     3.058279  s :     3.058279
      pz      :     0.789702  p :     2.353925
      px      :     0.920891
      py      :     0.643333
      dz2     :     0.008975  d :     0.091318
      dxz     :     0.008007
      dyz     :     0.023044
      dx2y2   :     0.024032
      dxy     :     0.027259

 14 O s       :     3.916896  s :     3.916896
      pz      :     1.553699  p :     4.509951
      px      :     1.643619
      py      :     1.312634
      dz2     :     0.002389  d :     0.025173
      dxz     :     0.001456
      dyz     :     0.007375
      dx2y2   :     0.007045
      dxy     :     0.006908

 15 C s       :     2.815535  s :     2.815535
      pz      :     0.944870  p :     2.503493
      px      :     0.856525
      py      :     0.702098
      dz2     :     0.004875  d :     0.037428
      dxz     :     0.005842
      dyz     :     0.007467
      dx2y2   :     0.009536
      dxy     :     0.009707

 16 C s       :     3.490811  s :     3.490811
      pz      :     0.905712  p :     2.936329
      px      :     1.004775
      py      :     1.025841
      dz2     :     0.007254  d :     0.037031
      dxz     :     0.005974
      dyz     :     0.005139
      dx2y2   :     0.009172
      dxy     :     0.009492

 17 C s       :     2.337967  s :     2.337967
      pz      :     1.103036  p :     3.258768
      px      :     1.157236
      py      :     0.998497
      dz2     :     0.003786  d :     0.034110
      dxz     :     0.005977
      dyz     :     0.006929
      dx2y2   :     0.008000
      dxy     :     0.009418

 18 C s       :     3.210763  s :     3.210763
      pz      :     0.896112  p :     2.694790
      px      :     0.681939
      py      :     1.116738
      dz2     :     0.011136  d :     0.073322
      dxz     :     0.013702
      dyz     :     0.011896
      dx2y2   :     0.018859
      dxy     :     0.017729

 19 O s       :     3.860624  s :     3.860624
      pz      :     1.550925  p :     4.509057
      px      :     1.368917
      py      :     1.589215
      dz2     :     0.004733  d :     0.029500
      dxz     :     0.004922
      dyz     :     0.006041
      dx2y2   :     0.006003
      dxy     :     0.007801

 20 C s       :     3.372699  s :     3.372699
      pz      :     0.950306  p :     2.934322
      px      :     0.986907
      py      :     0.997109
      dz2     :     0.009253  d :     0.058124
      dxz     :     0.013757
      dyz     :     0.014070
      dx2y2   :     0.006819
      dxy     :     0.014224

 21 C s       :     4.032917  s :     4.032917
      pz      :     1.025156  p :     2.986000
      px      :     0.949788
      py      :     1.011057
      dz2     :     0.005889  d :     0.033893
      dxz     :     0.005430
      dyz     :     0.005166
      dx2y2   :     0.007658
      dxy     :     0.009750

 22 C s       :     3.406006  s :     3.406006
      pz      :     0.876620  p :     2.840136
      px      :     0.961651
      py      :     1.001864
      dz2     :     0.003777  d :     0.037200
      dxz     :     0.006271
      dyz     :     0.008400
      dx2y2   :     0.009032
      dxy     :     0.009721

 23 H s       :     0.774075  s :     0.774075

 24 H s       :     0.779029  s :     0.779029

 25 H s       :     0.774114  s :     0.774114

 26 H s       :     0.776617  s :     0.776617

 27 H s       :     0.776362  s :     0.776362

 28 H s       :     0.780107  s :     0.780107

 29 H s       :     0.776565  s :     0.776565

 30 H s       :     0.780225  s :     0.780225

 31 H s       :     0.776609  s :     0.776609

 32 H s       :     0.789757  s :     0.789757

 33 H s       :     0.775590  s :     0.775590

 34 H s       :     0.785618  s :     0.785618

 35 H s       :     0.793251  s :     0.793251

 36 H s       :     0.721988  s :     0.721988

 37 H s       :     0.718686  s :     0.718686

 38 H s       :     0.772349  s :     0.772349

 39 H s       :     0.778824  s :     0.778824

 40 H s       :     0.772860  s :     0.772860

 41 H s       :     0.772667  s :     0.772667

 42 H s       :     0.772467  s :     0.772467

 43 H s       :     0.779317  s :     0.779317

 44 H s       :     0.774884  s :     0.774884



                     *******************************
                     * LOEWDIN POPULATION ANALYSIS *
                     *******************************

----------------------
LOEWDIN ATOMIC CHARGES
----------------------
   0 C :   -0.501664
   1 C :   -0.251374
   2 C :   -0.486525
   3 C :   -0.486436
   4 C :   -0.105116
   5 C :   -0.198249
   6 C :   -0.145114
   7 C :   -0.134014
   8 C :   -0.157330
   9 C :   -0.199371
  10 C :    0.149846
  11 O :   -0.364501
  12 C :   -0.342004
  13 C :    0.135027
  14 O :   -0.363947
  15 C :   -0.152708
  16 C :   -0.128961
  17 C :   -0.223741
  18 C :    0.057185
  19 O :   -0.389849
  20 C :   -0.252757
  21 C :   -0.187803
  22 C :   -0.156878
  23 H :    0.206362
  24 H :    0.205119
  25 H :    0.206396
  26 H :    0.206138
  27 H :    0.208351
  28 H :    0.203407
  29 H :    0.208227
  30 H :    0.203412
  31 H :    0.206130
  32 H :    0.232813
  33 H :    0.239404
  34 H :    0.236291
  35 H :    0.232078
  36 H :    0.252150
  37 H :    0.256246
  38 H :    0.242238
  39 H :    0.237693
  40 H :    0.211322
  41 H :    0.208917
  42 H :    0.208966
  43 H :    0.238229
  44 H :    0.236395

-------------------------------
LOEWDIN REDUCED ORBITAL CHARGES
-------------------------------
  0 C s       :     2.995315  s :     2.995315
      pz      :     1.104941  p :     3.439740
      px      :     1.177314
      py      :     1.157484
      dz2     :     0.013885  d :     0.066610
      dxz     :     0.018517
      dyz     :     0.010774
      dx2y2   :     0.016395
      dxy     :     0.007038

  1 C s       :     2.873424  s :     2.873424
      pz      :     1.093186  p :     3.265827
      px      :     1.071560
      py      :     1.101081
      dz2     :     0.022185  d :     0.112123
      dxz     :     0.025965
      dyz     :     0.019996
      dx2y2   :     0.025873
      dxy     :     0.018105

  2 C s       :     2.996975  s :     2.996975
      pz      :     1.170130  p :     3.423100
      px      :     1.156709
      py      :     1.096261
      dz2     :     0.009613  d :     0.066450
      dxz     :     0.014023
      dyz     :     0.015217
      dx2y2   :     0.015286
      dxy     :     0.012311

  3 C s       :     2.997013  s :     2.997013
      pz      :     1.151462  p :     3.422958
      px      :     1.119042
      py      :     1.152454
      dz2     :     0.014741  d :     0.066464
      dxz     :     0.015194
      dyz     :     0.009052
      dx2y2   :     0.019413
      dxy     :     0.008064

  4 C s       :     2.868569  s :     2.868569
      pz      :     1.085814  p :     3.137945
      px      :     1.093311
      py      :     0.958819
      dz2     :     0.024912  d :     0.098602
      dxz     :     0.028668
      dyz     :     0.014364
      dx2y2   :     0.015623
      dxy     :     0.015035

  5 C s       :     2.893357  s :     2.893357
      pz      :     1.086569  p :     3.220754
      px      :     1.116510
      py      :     1.017675
      dz2     :     0.021584  d :     0.084139
      dxz     :     0.027730
      dyz     :     0.012258
      dx2y2   :     0.010780
      dxy     :     0.011787

  6 C s       :     2.896416  s :     2.896416
      pz      :     1.098963  p :     3.163532
      px      :     1.085723
      py      :     0.978846
      dz2     :     0.020349  d :     0.085166
      dxz     :     0.023473
      dyz     :     0.008997
      dx2y2   :     0.016177
      dxy     :     0.016169

  7 C s       :     2.851396  s :     2.851396
      pz      :     1.080859  p :     3.184554
      px      :     1.070370
      py      :     1.033325
      dz2     :     0.023349  d :     0.098063
      dxz     :     0.032487
      dyz     :     0.014212
      dx2y2   :     0.016012
      dxy     :     0.012003

  8 C s       :     2.894515  s :     2.894515
      pz      :     1.080521  p :     3.177424
      px      :     1.108126
      py      :     0.988777
      dz2     :     0.022289  d :     0.085392
      dxz     :     0.026893
      dyz     :     0.013619
      dx2y2   :     0.010377
      dxy     :     0.012214

  9 C s       :     2.892810  s :     2.892810
      pz      :     1.105772  p :     3.222627
      px      :     1.094517
      py      :     1.022337
      dz2     :     0.020289  d :     0.083934
      dxz     :     0.023565
      dyz     :     0.009365
      dx2y2   :     0.016177
      dxy     :     0.014538

 10 C s       :     2.835259  s :     2.835259
      pz      :     0.994380  p :     2.805487
      px      :     1.034846
      py      :     0.776262
      dz2     :     0.052340  d :     0.209407
      dxz     :     0.080887
      dyz     :     0.038432
      dx2y2   :     0.016083
      dxy     :     0.021666

 11 O s       :     3.562970  s :     3.562970
      pz      :     1.490471  p :     4.746507
      px      :     1.812344
      py      :     1.443693
      dz2     :     0.021422  d :     0.055023
      dxz     :     0.012844
      dyz     :     0.016338
      dx2y2   :     0.002138
      dxy     :     0.002280

 12 C s       :     2.932325  s :     2.932325
      pz      :     1.130936  p :     3.336549
      px      :     1.088778
      py      :     1.116836
      dz2     :     0.006656  d :     0.073130
      dxz     :     0.020825
      dyz     :     0.017463
      dx2y2   :     0.013976
      dxy     :     0.014210

 13 C s       :     2.828834  s :     2.828834
      pz      :     0.848550  p :     2.824860
      px      :     0.965472
      py      :     1.010838
      dz2     :     0.020321  d :     0.211280
      dxz     :     0.016717
      dyz     :     0.052318
      dx2y2   :     0.056142
      dxy     :     0.065782

 14 O s       :     3.552956  s :     3.552956
      pz      :     1.568382  p :     4.755954
      px      :     1.680044
      py      :     1.507528
      dz2     :     0.006643  d :     0.055038
      dxz     :     0.002085
      dyz     :     0.012776
      dx2y2   :     0.017226
      dxy     :     0.016308

 15 C s       :     2.849014  s :     2.849014
      pz      :     1.059665  p :     3.206186
      px      :     1.052024
      py      :     1.094497
      dz2     :     0.011103  d :     0.097507
      dxz     :     0.015066
      dyz     :     0.019365
      dx2y2   :     0.025899
      dxy     :     0.026074

 16 C s       :     2.897336  s :     2.897336
      pz      :     0.991586  p :     3.145464
      px      :     1.051821
      py      :     1.102057
      dz2     :     0.014878  d :     0.086162
      dxz     :     0.015832
      dyz     :     0.011884
      dx2y2   :     0.021401
      dxy     :     0.022167

 17 C s       :     2.891421  s :     2.891421
      pz      :     1.079012  p :     3.251262
      px      :     1.096241
      py      :     1.076009
      dz2     :     0.008441  d :     0.081058
      dxz     :     0.013327
      dyz     :     0.014581
      dx2y2   :     0.020564
      dxy     :     0.024145

 18 C s       :     2.814143  s :     2.814143
      pz      :     0.951089  p :     2.955188
      px      :     0.917673
      py      :     1.086427
      dz2     :     0.024562  d :     0.173484
      dxz     :     0.031465
      dyz     :     0.027684
      dx2y2   :     0.044000
      dxy     :     0.045774

 19 O s       :     3.481025  s :     3.481025
      pz      :     1.642669  p :     4.837903
      px      :     1.503706
      py      :     1.691529
      dz2     :     0.010869  d :     0.070920
      dxz     :     0.015219
      dyz     :     0.012411
      dx2y2   :     0.014564
      dxy     :     0.017856

 20 C s       :     2.963248  s :     2.963248
      pz      :     1.038683  p :     3.173829
      px      :     1.070982
      py      :     1.064163
      dz2     :     0.018294  d :     0.115680
      dxz     :     0.026084
      dyz     :     0.029135
      dx2y2   :     0.013495
      dxy     :     0.028673

 21 C s       :     2.895725  s :     2.895725
      pz      :     1.042305  p :     3.211392
      px      :     1.073964
      py      :     1.095123
      dz2     :     0.011958  d :     0.080686
      dxz     :     0.014765
      dyz     :     0.012466
      dx2y2   :     0.018481
      dxy     :     0.023016

 22 C s       :     2.896971  s :     2.896971
      pz      :     1.016800  p :     3.173708
      px      :     1.072245
      py      :     1.084663
      dz2     :     0.008263  d :     0.086199
      dxz     :     0.014017
      dyz     :     0.017474
      dx2y2   :     0.022118
      dxy     :     0.024327

 23 H s       :     0.793638  s :     0.793638

 24 H s       :     0.794881  s :     0.794881

 25 H s       :     0.793604  s :     0.793604

 26 H s       :     0.793862  s :     0.793862

 27 H s       :     0.791649  s :     0.791649

 28 H s       :     0.796593  s :     0.796593

 29 H s       :     0.791773  s :     0.791773

 30 H s       :     0.796588  s :     0.796588

 31 H s       :     0.793870  s :     0.793870

 32 H s       :     0.767187  s :     0.767187

 33 H s       :     0.760596  s :     0.760596

 34 H s       :     0.763709  s :     0.763709

 35 H s       :     0.767922  s :     0.767922

 36 H s       :     0.747850  s :     0.747850

 37 H s       :     0.743754  s :     0.743754

 38 H s       :     0.757762  s :     0.757762

 39 H s       :     0.762307  s :     0.762307

 40 H s       :     0.788678  s :     0.788678

 41 H s       :     0.791083  s :     0.791083

 42 H s       :     0.791034  s :     0.791034

 43 H s       :     0.761771  s :     0.761771

 44 H s       :     0.763605  s :     0.763605



                      *****************************
                      * MAYER POPULATION ANALYSIS *
                      *****************************

  NA   - Mulliken gross atomic population
  ZA   - Total nuclear charge
  QA   - Mulliken gross atomic charge
  VA   - Mayer's total valence
  BVA  - Mayer's bonded valence
  FA   - Mayer's free valence

  ATOM       NA         ZA         QA         VA         BVA        FA
  0 C      6.5669     6.0000    -0.5669     3.0934     3.0934     0.0000
  1 C      5.5435     6.0000     0.4565     2.7975     2.7975    -0.0000
  2 C      6.6917     6.0000    -0.6917     3.3901     3.3901    -0.0000
  3 C      6.6822     6.0000    -0.6822     3.3813     3.3813    -0.0000
  4 C      6.0969     6.0000    -0.0969     3.2792     3.2792     0.0000
  5 C      6.1907     6.0000    -0.1907     3.0984     3.0984     0.0000
  6 C      5.9957     6.0000     0.0043     3.0988     3.0988     0.0000
[...]
  0-1A  ->  6-1A    4.618734   37252.6   268.4   0.013416449   0.11856  -0.33368   0.08444   0.00976
  0-1A  ->  7-1A    4.657778   37567.5   266.2   0.002166331   0.01898   0.08428  -0.00213  -0.10898
  0-1A  ->  8-1A    4.703529   37936.5   263.6   0.009981550   0.08662  -0.21320   0.19634  -0.05113
  0-1A  ->  9-1A    4.792574   38654.7   258.7   0.003986869   0.03396   0.14370  -0.07182  -0.09027
  0-1A  -> 10-1A    4.816085   38844.3   257.4   0.032497068   0.27542  -0.28371  -0.06927  -0.43603
  0-1A  -> 11-1A    4.865214   39240.6   254.8   0.439352584   3.68598  -1.44764  -0.02765  -1.26077
  0-1A  -> 12-1A    4.973807   40116.5   249.3   0.001619402   0.01329   0.02112   0.01676   0.11208
  0-1A  -> 13-1A    5.617639   45309.3   220.7   0.029049185   0.21107  -0.03671  -0.41239   0.19914
  0-1A  -> 14-1A    5.639306   45484.1   219.9   0.196928939   1.42536   0.29521  -1.12523   0.26845
  0-1A  -> 15-1A    5.817364   46920.2   213.1   0.000189051   0.00133  -0.02223  -0.02269   0.01782
  0-1A  -> 16-1A    5.877498   47405.2   210.9   0.003938262   0.02735   0.04957   0.07620   0.13815
  0-1A  -> 17-1A    5.903689   47616.5   210.0   0.002674030   0.01849   0.06076  -0.06980  -0.09962
  0-1A  -> 18-1A    5.954452   48025.9   208.2   0.002448127   0.01678   0.02579  -0.12673   0.00750
  0-1A  -> 19-1A    5.956024   48038.6   208.2   0.001784207   0.01223   0.06312  -0.07535  -0.05066
  0-1A  -> 20-1A    6.032484   48655.3   205.5   0.121415894   0.82153   0.27001  -0.40089  -0.76675
  0-1A  -> 21-1A    6.131496   49453.9   202.2   0.003274321   0.02180   0.01223  -0.04725  -0.13934
  0-1A  -> 22-1A    6.152817   49625.8   201.5   0.004212549   0.02795   0.03711   0.15462  -0.05158

----------------------------------------------------------------------------------------------------
                     ABSORPTION SPECTRUM VIA TRANSITION VELOCITY DIPOLE MOMENTS    
----------------------------------------------------------------------------------------------------
     Transition      Energy     Energy  Wavelength fosc(P2)      P2        PX        PY        PZ   
                      (eV)      (cm-1)    (nm)                 (au**2)    (au)      (au)      (au)  
----------------------------------------------------------------------------------------------------
  0-1A  ->  1-1A    3.900972   31463.5   317.8   0.001742329   0.00037  -0.01375  -0.00609   0.01219
  0-1A  ->  2-1A    4.056602   32718.7   305.6   0.000155898   0.00003  -0.00438  -0.00251  -0.00306
  0-1A  ->  3-1A    4.121792   33244.5   300.8   0.000643822   0.00015   0.00860   0.00120  -0.00842
  0-1A  ->  4-1A    4.519803   36454.7   274.3   0.341231069   0.08502   0.27581  -0.00028  -0.09459
  0-1A  ->  5-1A    4.550482   36702.1   272.5   0.000179062   0.00004   0.00310  -0.00507   0.00310
  0-1A  ->  6-1A    4.618734   37252.6   268.4   0.005420659   0.00138   0.03548  -0.00681   0.00866
  0-1A  ->  7-1A    4.657778   37567.5   266.2   0.001557334   0.00040  -0.01964   0.00183   0.00328
  0-1A  ->  8-1A    4.703529   37936.5   263.6   0.004114805   0.00107   0.03126  -0.00735  -0.00597
  0-1A  ->  9-1A    4.792574   38654.7   258.7   0.001720056   0.00045  -0.01582  -0.00102   0.01425
  0-1A  -> 10-1A    4.816085   38844.3   257.4   0.010027086   0.00266   0.04299  -0.00122   0.02850
  0-1A  -> 11-1A    4.865214   39240.6   254.8   0.172876491   0.04636   0.19801  -0.01937   0.08235
  0-1A  -> 12-1A    4.973807   40116.5   249.3   0.000383121   0.00011  -0.00482   0.00321  -0.00846
  0-1A  -> 13-1A    5.617639   45309.3   220.7   0.000247436   0.00008   0.00420   0.00755  -0.00140
  0-1A  -> 14-1A    5.639306   45484.1   219.9   0.006918101   0.00215  -0.03846   0.02403   0.00969
  0-1A  -> 15-1A    5.817364   46920.2   213.1   0.000080873   0.00003   0.00456   0.00124  -0.00191
  0-1A  -> 16-1A    5.877498   47405.2   210.9   0.003858781   0.00125  -0.01372  -0.01382  -0.02951
  0-1A  -> 17-1A    5.903689   47616.5   210.0   0.000034669   0.00001   0.00064  -0.00315  -0.00096
  0-1A  -> 18-1A    5.954452   48025.9   208.2   0.000566292   0.00019  -0.00186   0.01214  -0.00592
  0-1A  -> 19-1A    5.956024   48038.6   208.2   0.000098044   0.00003  -0.00561   0.00000  -0.00088
  0-1A  -> 20-1A    6.032484   48655.3   205.5   0.000682373   0.00023   0.00805   0.00210   0.01256
  0-1A  -> 21-1A    6.131496   49453.9   202.2   0.000203400   0.00007   0.00688  -0.00131   0.00444
  0-1A  -> 22-1A    6.152817   49625.8   201.5   0.000926387   0.00031  -0.00487  -0.01529   0.00752

------------------------------------------------------------------------------------------
                     CD SPECTRUM VIA TRANSITION ELECTRIC DIPOLE MOMENTS    
------------------------------------------------------------------------------------------
     Transition      Energy     Energy  Wavelength    R        MX        MY        MZ   
                      (eV)      (cm-1)    (nm)   (1e40*cgs)   (au)      (au)      (au)  
------------------------------------------------------------------------------------------
  0-1A  ->  1-1A    3.900972   31463.5   317.8  -11.53890  -0.02782  -0.16666  -0.37226
  0-1A  ->  2-1A    4.056602   32718.7   305.6   -0.54822   0.16115  -0.30656   0.03439
  0-1A  ->  3-1A    4.121792   33244.5   300.8   -1.40317   0.02512  -0.00729   0.04773
  0-1A  ->  4-1A    4.519803   36454.7   274.3  -66.02397   0.10257   0.58013   0.13695
  0-1A  ->  5-1A    4.550482   36702.1   272.5    5.89556   0.04029   0.16878  -0.04303
  0-1A  ->  6-1A    4.618734   37252.6   268.4   -3.95880  -0.00896   0.05743   0.05721
  0-1A  ->  7-1A    4.657778   37567.5   266.2   -1.44127  -0.10334  -0.08565  -0.10630
  0-1A  ->  8-1A    4.703529   37936.5   263.6  -17.68260  -0.14811  -0.03063  -0.23363
  0-1A  ->  9-1A    4.792574   38654.7   258.7    4.43211  -0.02882   0.04947   0.01890
  0-1A  -> 10-1A    4.816085   38844.3   257.4    0.88522   0.01000   0.12155  -0.02151
  0-1A  -> 11-1A    4.865214   39240.6   254.8   12.91735  -0.02136   0.36014   0.03836
  0-1A  -> 12-1A    4.973807   40116.5   249.3   -1.82822   0.01102  -0.01193   0.03431
  0-1A  -> 13-1A    5.617639   45309.3   220.7    1.27211   0.02678   0.02492   0.04298
  0-1A  -> 14-1A    5.639306   45484.1   219.9  -23.99764   0.00587  -0.01293   0.12895
  0-1A  -> 15-1A    5.817364   46920.2   213.1   -0.16321  -0.03859   0.03774   0.01933
  0-1A  -> 16-1A    5.877498   47405.2   210.9   -1.83598  -0.01141   0.23011  -0.09464
  0-1A  -> 17-1A    5.903689   47616.5   210.0    1.59268  -0.01773   0.04255  -0.00672
  0-1A  -> 18-1A    5.954452   48025.9   208.2    0.63062  -0.02875   0.00277  -0.03260
  0-1A  -> 19-1A    5.956024   48038.6   208.2   -1.05995   0.01227  -0.01503  -0.00674
  0-1A  -> 20-1A    6.032484   48655.3   205.5   12.32357  -0.00042   0.08167  -0.00876
  0-1A  -> 21-1A    6.131496   49453.9   202.2    0.49040  -0.00802   0.01926   0.00023
  0-1A  -> 22-1A    6.152817   49625.8   201.5   -0.45789  -0.07953   0.06738   0.12594

------------------------------------------------------------------------------------------
                     CD SPECTRUM VIA TRANSITION VELOCITY DIPOLE MOMENTS    
------------------------------------------------------------------------------------------
     Transition      Energy     Energy  Wavelength    R        MX        MY        MZ   
                      (eV)      (cm-1)    (nm)   (1e40*cgs)   (au)      (au)      (au)  
------------------------------------------------------------------------------------------
  0-1A  ->  1-1A    3.900972   31463.5   317.8  -10.32628  -0.02782  -0.16666  -0.37226
  0-1A  ->  2-1A    4.056602   32718.7   305.6   -0.12886   0.16115  -0.30656   0.03439
  0-1A  ->  3-1A    4.121792   33244.5   300.8   -0.60556   0.02512  -0.00729   0.04773
  0-1A  ->  4-1A    4.519803   36454.7   274.3   43.06591   0.10257   0.58013   0.13695
  0-1A  ->  5-1A    4.550482   36702.1   272.5   -2.43601   0.04029   0.16878  -0.04303
  0-1A  ->  6-1A    4.618734   37252.6   268.4   -0.59290  -0.00896   0.05743   0.05721
  0-1A  ->  7-1A    4.657778   37567.5   266.2    4.19572  -0.10334  -0.08565  -0.10630
  0-1A  ->  8-1A    4.703529   37936.5   263.6   -8.21038  -0.14811  -0.03063  -0.23363
  0-1A  ->  9-1A    4.792574   38654.7   258.7    1.80723  -0.02882   0.04947   0.01890
  0-1A  -> 10-1A    4.816085   38844.3   257.4   -0.88453   0.01000   0.12155  -0.02151
  0-1A  -> 11-1A    4.865214   39240.6   254.8  -21.21535  -0.02136   0.36014   0.03836
  0-1A  -> 12-1A    4.973807   40116.5   249.3   -0.98401   0.01102  -0.01193   0.03431
  0-1A  -> 13-1A    5.617639   45309.3   220.7    0.54889   0.02678   0.02492   0.04298
  0-1A  -> 14-1A    5.639306   45484.1   219.9    1.62289   0.00587  -0.01293   0.12895
  0-1A  -> 15-1A    5.817364   46920.2   213.1   -0.36636  -0.03859   0.03774   0.01933
  0-1A  -> 16-1A    5.877498   47405.2   210.9   -0.50465  -0.01141   0.23011  -0.09464
  0-1A  -> 17-1A    5.903689   47616.5   210.0   -0.30245  -0.01773   0.04255  -0.00672
  0-1A  -> 18-1A    5.954452   48025.9   208.2    0.60384  -0.02875   0.00277  -0.03260
  0-1A  -> 19-1A    5.956024   48038.6   208.2   -0.13552   0.01227  -0.01503  -0.00674
  0-1A  -> 20-1A    6.032484   48655.3   205.5    0.12315  -0.00042   0.08167  -0.00876
  0-1A  -> 21-1A    6.131496   49453.9   202.2   -0.16601  -0.00802   0.01926   0.00023
  0-1A  -> 22-1A    6.152817   49625.8   201.5    0.63377  -0.07953   0.06738   0.12594

Total run time:      445.449 sec

           *** ORCA-CIS/TD-DFT FINISHED WITHOUT ERROR ***
-----------------------
CIS/TD-DFT TOTAL ENERGY
-----------------------

    E(SCF)  =  -1000.481199463 Eh
    DE(CIS) =      0.143358083 Eh (Root  1)
    ----------------------------- ---------
    E(tot)  =  -1000.337841380 Eh


Maximum memory used throughout the entire CIS-calculation: 903.3 MB
=> NOW LEAVING ORCA_CIS

-------------------------   --------------------
FINAL SINGLE POINT ENERGY     -1000.337841380127
-------------------------   --------------------



           ************************************************************
           *        Program running with 4 parallel MPI-processes     *
           *              working on a common directory               *
           ************************************************************

------------------------------------------------------------------------------
                              ORCA PROPERTY CALCULATIONS
------------------------------------------------------------------------------

GBWName                                 ... td.gbw
Number of atoms                         ...     45
Number of basis functions               ...    458
Max core memory                         ...   2500 MB

Electric properties:
Dipole moment                           ... YES
Quadrupole moment                       ...  NO
Static polarizability (Dipole/Dipole)   ...  NO
Static polarizability (Dipole/Quad.)    ...  NO
Static polarizability (Quad./Quad.)     ...  NO
Static polarizability (Velocity)        ...  NO
Static hyperpolarizability              ...  NO

Atomic electric properties:
Dipole moment                           ...  NO
Quadrupole moment                       ...  NO
Static polarizability                   ...  NO

Choice of electric origin               ... Center of mass
Position of electric origin             ...     1.082746     0.052108     0.557892

General magnetic properties:
Magnetizability                         ...  NO

EPR properties:
g-Tensor (aka g-matrix)                 ...  NO
Zero-Field splitting spin-orbit         ...  NO
Zero-field splitting spin-spin          ...  NO
Hyperfine couplings                     ...  NO (   0 nuclei)
Quadrupole couplings                    ...  NO (   0 nuclei)
Contact density                         ...  NO (   0 nuclei)

NMR properties:
Chemical shifts                         ...  NO (   0 nuclei)
Spin-rotation constants                 ...  NO (   0 nuclei)
Spin-spin couplings                     ...  NO (   0 nuclei,    0 pairs)

Choice of magnetic origin               ... GIAO
Position of magnetic origin             ...     0.000000     0.000000     0.000000

Properties with geometric perturbations:
SCF Hessian                             ...  NO
IR spectrum                             ...  NO
VCD spectrum                            ...  NO
X-ray spectroscopy properties:
SCF XES/XAS/RIXS spectra                ...  NO

SCF SOC stabilization energy            ...  NO
Diagonal Born-Oppenheimer correction    ...  NO

-------------
DIPOLE MOMENT
-------------

Method             : SCF
Type of density    : Electron Density
Multiplicity       :   1
Irrep              :   0
Energy             : -1000.4811994631714924 Eh
Basis              : AO
                                X                 Y                 Z
Electronic contribution:     24.672003271      -0.516198322      11.920476870
Nuclear contribution   :    -23.897467821      -1.001411098     -14.412977255
                        -----------------------------------------
Total Dipole Moment    :      0.774535450      -1.517609419      -2.492500384
                        -----------------------------------------
Magnitude (a.u.)       :      3.019205471
Magnitude (Debye)      :      7.674210429



--------------------
Rotational spectrum 
--------------------
 
Rotational constants in cm-1:             0.018746             0.002939             0.002713 
Rotational constants in MHz :           561.979303            88.106944            81.328498 

Dipole components along the rotational axes: 
x,y,z [a.u.] :     1.138177    -2.556323    -1.133742 
x,y,z [Debye]:     2.893015    -6.497656    -2.881743 

 

Dipole moment calculation done in   0.1 sec 

Maximum memory used throughout the entire PROP-calculation: 31.6 MB

--------------------------------
SUGGESTED CITATIONS FOR THIS RUN
--------------------------------

Below you find a list of papers that are relevant to this ORCA run
We neither can nor want to force you to cite these papers, but we appreciate if you do
You receive ORCA, which is the product of decades of hard work by many enthusiastic individuals, for free
The only thing we kindly ask in return is that you cite our papers,
We deeply appreciate it, if you show your appreciation for ORCA by not just citing the generic ORCA reference.

Please note that relegating all ORCA citations to the supporting information does *not* help us.
SI sections are not indexed - citations you put there will not count into any citation statistics
But we need these citations in order to attract the funding resources that allow us to do what we are doing

Therefore, if you are a happy ORCA user, please consider citing a few of the papers listed below in the main body of your paper

In addition to the list printed below, the program has created the file td.bibtex that contains the list in bibtex format
You can import this file easily into all common literature databanks and citation aid programs

It goes without saying that in many instances, there are alternative algorithms to achieve similar
results as the ones you have gotten from ORCA. It is, of course, also the case that in some instances
ORCA just re-implements algorithms worked out by others. We are fully aware of that and we are also
fully appreciative of our colleagues work. Hence this citation list should not be read as indicating
that the listed papers, which are focused on our own work, are the only ones worth citing. It simply
meant to make it easier for users to cite ORCA specific papers. It is not a substitute for doing your
own literature research and citing the relevant literature in a scientifically appropriate manner.

List of essential papers. We consider these as the minimum necessary citations

  1. Neese, F.
     Software update: the ORCA program system, version 6.0
     WIRES Comput. Molec. Sci. 2025 15(1), e70019
     doi.org/10.1002/wcms.70019

List of papers to cite with high priority. The work reported in these papers was absolutely
necessary for this run to complete.
Our perspective: the developers of density functionals and basis sets usually get cited in chemistry papers
Good! But without the algorithms to do something with them, the functionals or basis sets would not do anything.
Hence, in our opinion, the algorithm design and method developments papers are equally worthy of getting cited

  1. Neese, F.; Olbrich, G.
     Efficient use of the resolution of the identity approximation in time-dependent density functional calculations with hybrid density functionals
     Chem. Phys. Lett. 2002 362 , 170-178
     doi.org/10.1016/s0009-2614(02)01053-9
  2. Neese, F.
     An improvement of the resolution of the identity approximation for the formation of the Coulomb matrix
     J. Comp. Chem. 2003 24(14), 1740-1747
     doi.org/10.1002/jcc.10318
  3. Neese, F.; Wennmohs, F.; Hansen, A.; Becker, U.
     Efficient, approximate and parallel Hartree-Fock and hybrid DFT calculations. A 'chain-of-spheres' algorithm for the Hartree-Fock exchange
     Chem. Phys. 2009 356(1-3), 98-109
     doi.org/10.1016/j.chemphys.2008.10.036
  4. Garcia-Rates, M.; Neese, F.
     Effect of the Solute Cavity on the Solvation Energy and its Derivatives within the Framework of the Gaussian Charge Scheme
     J. Comput. Chem. 2020 41 , 922-939
     doi.org/10.1002/jcc.26139
  5. Helmich-Paris, B.; de Souza, B.; Neese, F.; Izsák, R.
     An improved chain of spheres for exchange algorithm
     J. Chem. Phys. 2021 155(10), 104109
     doi.org/10.1063/5.0058766
  6. Neese, F.
     The SHARK Integral Generation and Digestion System
     J. Comp. Chem. 2022 44(3), 381
     doi.org/10.1002/jcc.26942

List of suggested additional citations. These are papers that are important in the 'surrounding' of 
of this run, or papers that preceded the highly important papers. If you like your results we are grateful for a citation.

  1. Izsak, R.; Neese, F.
     An overlap fitted chain of spheres exchange method
     J. Chem. Phys. 2011 135 , 144105
     doi.org/10.1063/1.3646921
  2. Izsak, R.; Hansen, A.; Neese, F.
     The resolution of identity and chain of spheres approximations for the LPNO-CCSD singles Fock term
     Molec. Phys. 2012 110 , 2413-2417
     doi.org/10.1080/00268976.2012.687466
  3. Neese, F.
     The ORCA program system
     WIRES Comput. Molec. Sci. 2012 2(1), 73-78
     doi.org/10.1002/wcms.81
  4. Izsak, R.; Neese, F.; Klopper, W.
     Robust fitting techniques in the chain of spheres approximation to the Fock exchange: The role of the complementary space
     J. Chem. Phys. 2013 139 , 
     doi.org/10.1063/1.4819264
  5. Neese, F.
     Software update: the ORCA program system, version 4.0
     WIRES Comput. Molec. Sci. 2018 8(1), 1-6
     doi.org/10.1002/wcms.1327
  6. Neese, F.; Wennmohs, F.; Becker, U.; Riplinger, C.
     The ORCA quantum chemistry program package
     J. Chem. Phys. 2020 152(22), 224108
     doi.org/10.1063/5.0004608
  7. Neese, F.
     Software update: The ORCA program system—Version 5.0
     WIRES Comput. Molec. Sci. 2022 12(1), e1606
     doi.org/10.1002/wcms.1606

List of optional additional citations

  1. Neese, F.
     Approximate second-order SCF convergence for spin unrestricted wavefunctions
     Chem. Phys. Lett. 2000 325(1-3), 93-98
     doi.org/10.1016/s0009-2614(00)00662-x

Timings for individual modules:

Sum of individual times          ...      779.373 sec (=  12.990 min)
Startup calculation              ...        6.909 sec (=   0.115 min)   0.9 %
SCF iterations                   ...      325.729 sec (=   5.429 min)  41.8 %
Property integrals               ...        0.577 sec (=   0.010 min)   0.1 %
Property calculations            ...        0.426 sec (=   0.007 min)   0.1 %
CIS module                       ...      445.732 sec (=   7.429 min)  57.2 %
                             ****ORCA TERMINATED NORMALLY****
TOTAL RUN TIME: 0 days 0 hours 13 minutes 0 seconds 154 msec
