
                                 *****************
                                 * O   R   C   A *
                                 *****************

                                            #,                                       
                                            ###                                      
                                            ####                                     
                                            #####                                    
                                            ######                                   
                                           ########,                                 
                                     ,,################,,,,,                         
                               ,,#################################,,                 
                          ,,##########################################,,             
                       ,#########################################, ''#####,          
                    ,#############################################,,   '####,        
                  ,##################################################,,,,####,       
                ,###########''''           ''''###############################       
              ,#####''   ,,,,##########,,,,          '''####'''          '####       
            ,##' ,,,,###########################,,,                        '##       
           ' ,,###''''                  '''############,,,                           
         ,,##''                                '''############,,,,        ,,,,,,###''
      ,#''                                            '''#######################'''  
     '                                                          ''''####''''         
             ,#######,   #######,   ,#######,      ##                                
            ,#'     '#,  ##    ##  ,#'     '#,    #''#        ,####,    ,#,          
            ##       ##  ##   ,#'  ##            #'  '#       #'       ,# #          
            ##       ##  #######   ##           ,######,      #####,      #          
            '#,     ,#'  ##    ##  '#,     ,#' ,#      #,     #,   #      #          
             '#######'   ##     ##  '#######'  #'      '#     '####' #    #          



                #########################################################
                #                        -***-                          #
                #          Department of theory and spectroscopy        #
                #                                                       #
                #                      Frank Neese                      #
                #                                                       #
                #     Directorship, Architecture, Infrastructure        #
                #                    SHARK, DRIVERS                     #
                #        Core code/Algorithms in most modules           #
                #                                                       #
                #        Max Planck Institute fuer Kohlenforschung      #
                #                Kaiser Wilhelm Platz 1                 #
                #                 D-45470 Muelheim/Ruhr                 #
                #                      Germany                          #
                #                                                       #
                #                  All rights reserved                  #
                #                        -***-                          #
                #########################################################


                         Program Version 6.1.1  -  RELEASE   -


 With contributions from (in alphabetic order):
[Max-Planck-Institut fuer Kohlenforschung]                               
  Daniel Aravena         : Magnetic Suceptibility                        
  Michael Atanasov       : Ab Initio Ligand Field Theory (pilot matlab implementation)
  Alexander A. Auer      : GIAO ZORA, VPT2 properties, NMR spectrum      
  Ute Becker             : All parallelization in ORCA, NUMFREQ, NUMCALC 
  Giovanni Bistoni       : ED, misc. LED, open-shell LED, HFLD           
  Dmytro Bykov           : pre 5.0 version of the SCF Hessian            
  Marcos Casanova-Páez   : Triplet and SCS-CIS(D). UHF-(DLPNO)-IP/EA/STEOM-CCSD. UHF-CVS-IP/STEOM-CCSD   
  Vijay G. Chilkuri      : MRCI spin determinant printing, contributions to CSF-ICE 
  Pauline Colinet        : FMM embedding                                 
  Dipayan Datta          : RHF DLPNO-CCSD density                        
  Achintya Kumar Dutta   : EOM-CC, STEOM-CC                              
  Nicolas Foglia         : Exact transition moments, OPA infrastructure, MCD improvements    
  Dmitry Ganyushin       : Spin-Orbit,Spin-Spin,Magnetic field MRCI      
  Miquel Garcia-Rates    : C-PCM and meta-GGA Hessian, CCSD/C-PCM, Gaussian charge scheme 
  Tiago L. C. Gouveia    : GS-ROHF, GS-ROCIS                             
  Yang Guo               : DLPNO-NEVPT2, F12-NEVPT2, CIM, IAO-localization        
  Andreas Hansen         : Spin unrestricted coupled pair/coupled cluster methods 
  Ingolf Harden          : AUTO-CI MPn and infrastructure                
  Benjamin Helmich-Paris : MC-RPA, TRAH-(SCF,CASSCF), AVAS, COSX integrals, SCF dyn. polar., MC-PDFT, srDFT 
  Lee Huntington         : MR-EOM, pCC                                   
  Robert Izsak           : Overlap fitted RIJCOSX, COSX-SCS-MP3, EOM     
  Riya Kayal             : Wick's Theorem for AUTO-CI, AUTO-CI UHF-CCSDT 
  Emily Kempfer          : AUTO-CI RHF CISDT and CCSDT, approximate NEVPT4
  Christian Kollmar      : KDIIS, OOCD, Brueckner-CCSD(T), CCSD density, CASPT2, CASPT2-K, improved NEVPT2 
  Axel Koslowski         : Symmetry handling                             
  Simone Kossmann        : meta-GGA functionals, TD-DFT gradient, OOMP2, (MP2 Hessian; deprecated post 5.0) 
  Lucas Lang             : DCDCAS, Hyperfine gauge corrections, ICE-SOC+SSC
  Marvin Lechner         : AUTO-CI (C++ implementation), FIC-MRCC        
  Spencer Leger          : CASSCF response                               
  Dagmar Lenk            : GEPOL surface, SMD, ORCA-2-JSON               
  Dimitrios Liakos       : Extrapolation schemes; Compound Job, Property file
  Dimitrios Manganas     : Further ROCIS development; embedding schemes. LFT, Crystal Embedding 
  Dimitrios Pantazis     : SARC Basis sets                               
  Anastasios Papadopoulos: AUTO-CI, single reference methods and gradients 
  Taras Petrenko         : pre 6.0 DFT Hessian and TD-DFT gradient,  ECA, NRVS 
  Petra Pikulova         : Analytic Raman intensities                    
  Peter Pinski           : DLPNO-MP2, DLPNO-MP2 Gradient                 
  Shashank Vittal Rao    : ES-AILFT, MagRelax                            
  Christoph Reimann      : Effective Core Potentials                     
  Marius Retegan         : Local ZFS, SOC                                
  Christoph Riplinger    : Optimizer, TS searches, QM/MM, DLPNO-CCSD(T), (RO)-DLPNO pert. Triples 
  Michael Roemelt        : Original ROCIS implementation, recursive CI coupling coefficients
  Masaaki Saitow         : Open-shell DLPNO-CCSD energy and density      
  Barbara Sandhoefer     : DKH picture change effects                    
  Yorick L. A. Schmerwitz: GMF and freeze-and-release deltaSCF, NEB S-IDPP initial path                    
  Kantharuban Sivalingam : CASSCF convergence/infrastructure, NEVPT2, NEVPT3, NEVPT4(SD), FIC-MRCI and CEPA variants
  Bernardo de Souza      : ESD, SOC TD-DFT                               
  Georgi L. Stoychev     : AutoAux, RI-MP2 NMR, DLPNO-MP2 response, X2C  
  Van Anh Tran           : RI-MP2 g-tensors                              
  Willem Van den Heuvel  : Paramagnetic NMR                              
  Zikuan Wang            : NOTCH, Electric field optimization            
  Frank Wennmohs         : Technical directorship and infrastructure     
  Hang Xu                : AUTO-CI-Response properties                   
                                                                         
[FACCTs GmbH]                                                            
  Markus Bursch, Nicolas Foglia, Miquel Garcia-Rates, Ingolf Harden, Hagen Neugebauer, Anastasios Papadopoulos, 
  Christoph Riplinger, Bernardo de Souza, Georgi L. Stoychev                                                    
                                                                 
  APM, various basis sets, CI-OPT, improved COSX, DLPNO-Multilevel,           
  DOCKER, DRACO, updates on ESD, Fragmentator, GOAT, IRC, LR-CPCM, L-BFGS, MBIS, meta-GGA TD-DFT gradient, ML-optimized integration grids, 
  MM, NACMEs, nearIR, NEB, NEB-TS, NL-DFT gradient (VV10), 2- and 3-layer-ONIOM, interface openCOSMO-RS, QMMM,   
  Crystal-QMMM, RESP, rigid body optimization, SF, symmetry and pop. for TD-DFT, various functionals, SOLVATOR                                   
                                                                         
[Other institutions]                                                     
  V. Asgeirsson          : NEB                                           
  Christoph Bannwarth    : sTDA-DFT, sTD-DFT, PBEh-3c, B97-3c, D3        
  Giovanni Bistoni       : ETS/NOCV, ADLD/ADEX, COVALED                  
  Martin Brehm           : Molecular dynamics                            
  Ronald Cardenas        : ETS/NOCV                                      
  Martina Colucci        : COVALED                                       
  Sebastian Ehlert       : rSCAN, r2SCAN, r2SCAN-3c, D4, dhf basis sets  
  Marvin Friede          : D4 for Fr, Ra, Ac-Lr                          
  Lars Goerigk           : TD-DFT with DH, B97 family of functionals     
  Stefan Grimme          : VdW corrections, initial TS optimization, DFT functionals, gCP, sTDA/sTD-DF 
  Waldemar Hujo          : DFT-NL                                        
  H. Jonsson             : NEB                                           
  Holger Kruse           : gCP                                           
  Marcel Mueller         : wB97X-3c, vDZP basis set                      
  Hagen Neugebauer       : wr2SCAN, Native XTB                           
  Gianluca Regni         : ADLD/ADEX                                     
  Tobias Risthaus        : pre 6.0 range-separated hybrid DFT and stability analysis
  Lukas Wittmann         : regularized MP2, r2SCAN double-hybrids, wr2SCAN        
                                                                         
We gratefully acknowledge several colleagues who have allowed us to      
interface, adapt or use parts of their codes:                            
  Ed Valeev, F. Pavosevic, A. Kumar             : LibInt (2-el integral package), F12 methods 
  Garnet Chan, S. Sharma, J. Yang, R. Olivares  : DMRG                   
  Ulf Ekstrom                                   : XCFun DFT Library      
  Mihaly Kallay                                 : mrcc  (arbitrary order and MRCC methods)
  Frank Weinhold                                : gennbo (NPA and NBO analysis)           
  Simon Mueller                                 : openCOSMO-RS                            
  Christopher J. Cramer and Donald G. Truhlar   : smd solvation model                     
  S Lehtola, MJT Oliveira, MAL Marques          : LibXC Library                           
  Liviu Ungur et al                             : ANISO software                          


 Your calculation uses the libint2 library for the computation of 2-el integrals
 For citations please refer to: http://libint.valeyev.net

 Your ORCA version has been built with support for libXC version: 7.0.0
 For citations please refer to: https://libxc.gitlab.io

 This ORCA versions uses:
   CBLAS   interface :  Fast vector & matrix operations
   LAPACKE interface :  Fast linear algebra routines
   Shared memory     :  Shared parallel matrices


  ***********************************
  * Starting time: Tue Jul 21 12:02:33 2026
  * Host name:     DESKTOP-19Q153E
  * Process ID:    26844
  * Working dir.:  C:\Users\ysm04\Documents\etc\uv_vis\calculations\02_tddft_orca\enolB\enolB_c010\b3lyp_def2svp\none
  ***********************************

NOTE: MaxCore=2500 MB was set to SCF,MP2,MDCI,CIPSI,MRCI,RASCI and CIS
      => If you want to overwrite this, your respective input block should be placed after the MaxCore statement
================================================================================

----- Orbital basis set information -----
Your calculation utilizes the basis: def2-SVP
   F. Weigend and R. Ahlrichs, Phys. Chem. Chem. Phys. 7, 3297 (2005).

----- AuxJ basis set information -----
Your calculation utilizes the auxiliary basis: def2/J
   H-Rn: F. Weigend, Phys. Chem. Chem. Phys. 8, 1057 (2006).
   Fr-Lr: K. Eichkorn, F. Weigend, O. Treutler, R. Ahlrichs; Theor. Chem. Acc. 97, 119 (1997).

================================================================================
                                        WARNINGS
                       Please study these warnings very carefully!
================================================================================


WARNING: CIS/ROCIS methods need fully converged wavefunctions
  ===> : Setting SCFConvForced true
         You can overwrite this default with %scf ConvForced false 


================================================================================
                                       INPUT FILE
================================================================================
NAME = td.inp
|  1> # enolB / enolB_c010 / b3lyp_def2svp / solvent=none
|  2> ! B3LYP def2-SVP RIJCOSX def2/J TightSCF
|  3> %pal nprocs 4 end
|  4> %maxcore 2500
|  5> %scf
|  6>   MaxIter 300
|  7> end
|  8> %tddft
|  9>   nroots 18
| 10>   tda    true
| 11>   maxdim 5
| 12> end
| 13> * xyz 0 1
| 14> C      8.2893714200     1.3055778500     1.2458897500
| 15> O      7.1190654300     1.7868347500     0.6124264800
| 16> C      6.0568043900     0.9569077400     0.4767657000
| 17> C      6.0161258200    -0.3689744700     0.9034869100
| 18> C      4.8725352700    -1.1181086900     0.7117160500
| 19> C      3.7376348200    -0.5718451700     0.1123681700
| 20> C      3.7902251900     0.7562229700    -0.3227931900
| 21> C      4.9302814100     1.5043306600    -0.1482888600
| 22> C      2.5434964400    -1.4035469600    -0.0462360800
| 23> O      2.7625808500    -2.7133826900    -0.0514842300
| 24> C      1.2788316800    -0.8828959400    -0.1469319200
| 25> C      0.1274333800    -1.7295060300    -0.2523019800
| 26> O      0.2224746700    -2.9763858500    -0.2714635300
| 27> C     -1.2115130700    -1.1007484800    -0.2953972100
| 28> C     -1.4425257600     0.1911447900    -0.7590918900
| 29> C     -2.7201990100     0.7200291800    -0.7659831400
| 30> C     -3.8132848200    -0.0094725800    -0.3084760200
| 31> C     -5.2276566900     0.5463475000    -0.2800965500
| 32> C     -5.7466555700     0.5130586000     1.1656787000
| 33> C     -6.1235925400    -0.3238550400    -1.1745337600
| 34> C     -5.3068686900     1.9912707400    -0.7822757400
| 35> C     -3.5764313900    -1.3106129300     0.1349533500
| 36> C     -2.3077436000    -1.8481358600     0.1362426900
| 37> H      8.9809919300     2.1457288300     1.2497186500
| 38> H      8.7279454100     0.4730141100     0.6891481400
| 39> H      8.0836495700     0.9960262900     2.2741846300
| 40> H      6.8667722200    -0.8255634400     1.3829872500
| 41> H      4.8439242700    -2.1453600700     1.0419795600
| 42> H      2.9427888900     1.1956637400    -0.8240068600
| 43> H      4.9836540500     2.5262677500    -0.4893818500
| 44> H      1.8702481300    -3.1622503800    -0.1352036200
| 45> H      1.1373619000     0.1792345700    -0.0806152700
| 46> H     -0.6291679300     0.7858652000    -1.1458253800
| 47> H     -2.8507800000     1.7223566800    -1.1392727200
| 48> H     -6.7539452800     0.9212379800     1.2083837800
| 49> H     -5.1040282500     1.1094670900     1.8101178200
| 50> H     -5.7735470500    -0.5006505800     1.5552038300
| 51> H     -7.1373356100     0.0702904600    -1.1814552500
| 52> H     -6.1594216700    -1.3504990200    -0.8211532700
| 53> H     -5.7469179100    -0.3274023400    -2.1953736500
| 54> H     -4.9867225900     2.0639910200    -1.8189114500
| 55> H     -6.3369647200     2.3362685800    -0.7244150700
| 56> H     -4.6968113800     2.6518150400    -0.1707874300
| 57> H     -4.3936364700    -1.9214818300     0.4869638200
| 58> H     -2.1384471100    -2.8582737200     0.4819575200
| 59> *
| 60> 
| 61>                          ****END OF INPUT****
================================================================================

                       ****************************
                       * Single Point Calculation *
                       ****************************

---------------------------------
CARTESIAN COORDINATES (ANGSTROEM)
---------------------------------
  C      8.289371    1.305578    1.245890
  O      7.119065    1.786835    0.612426
  C      6.056804    0.956908    0.476766
  C      6.016126   -0.368974    0.903487
  C      4.872535   -1.118109    0.711716
  C      3.737635   -0.571845    0.112368
  C      3.790225    0.756223   -0.322793
  C      4.930281    1.504331   -0.148289
  C      2.543496   -1.403547   -0.046236
  O      2.762581   -2.713383   -0.051484
  C      1.278832   -0.882896   -0.146932
  C      0.127433   -1.729506   -0.252302
  O      0.222475   -2.976386   -0.271464
  C     -1.211513   -1.100748   -0.295397
  C     -1.442526    0.191145   -0.759092
  C     -2.720199    0.720029   -0.765983
  C     -3.813285   -0.009473   -0.308476
  C     -5.227657    0.546347   -0.280097
  C     -5.746656    0.513059    1.165679
  C     -6.123593   -0.323855   -1.174534
  C     -5.306869    1.991271   -0.782276
  C     -3.576431   -1.310613    0.134953
  C     -2.307744   -1.848136    0.136243
  H      8.980992    2.145729    1.249719
  H      8.727945    0.473014    0.689148
  H      8.083650    0.996026    2.274185
  H      6.866772   -0.825563    1.382987
  H      4.843924   -2.145360    1.041980
  H      2.942789    1.195664   -0.824007
  H      4.983654    2.526268   -0.489382
  H      1.870248   -3.162250   -0.135204
  H      1.137362    0.179235   -0.080615
  H     -0.629168    0.785865   -1.145825
  H     -2.850780    1.722357   -1.139273
  H     -6.753945    0.921238    1.208384
  H     -5.104028    1.109467    1.810118
  H     -5.773547   -0.500651    1.555204
  H     -7.137336    0.070290   -1.181455
  H     -6.159422   -1.350499   -0.821153
  H     -5.746918   -0.327402   -2.195374
  H     -4.986723    2.063991   -1.818911
  H     -6.336965    2.336269   -0.724415
  H     -4.696811    2.651815   -0.170787
  H     -4.393636   -1.921482    0.486964
  H     -2.138447   -2.858274    0.481958

----------------------------
CARTESIAN COORDINATES (A.U.)
----------------------------
  NO LB      ZA    FRAG     MASS         X           Y           Z
   0 C     6.0000    0    12.011   15.664642    2.467185    2.354390
   1 O     8.0000    0    15.999   13.453084    3.376628    1.157318
   2 C     6.0000    0    12.011   11.445702    1.808294    0.900957
   3 C     6.0000    0    12.011   11.368830   -0.697261    1.707343
   4 C     6.0000    0    12.011    9.207757   -2.112919    1.344948
   5 C     6.0000    0    12.011    7.063106   -1.080631    0.212345
   6 C     6.0000    0    12.011    7.162488    1.429054   -0.609991
   7 C     6.0000    0    12.011    9.316882    2.842773   -0.280225
   8 C     6.0000    0    12.011    4.806512   -2.652319   -0.087374
   9 O     8.0000    0    15.999    5.220521   -5.127550   -0.097291
  10 C     6.0000    0    12.011    2.416642   -1.668432   -0.277661
  11 C     6.0000    0    12.011    0.240814   -3.268293   -0.476782
  12 O     8.0000    0    15.999    0.420416   -5.624554   -0.512992
  13 C     6.0000    0    12.011   -2.289428   -2.080113   -0.558220
  14 C     6.0000    0    12.011   -2.725979    0.361211   -1.434476
  15 C     6.0000    0    12.011   -5.140431    1.360658   -1.447498
  16 C     6.0000    0    12.011   -7.206064   -0.017901   -0.582935
  17 C     6.0000    0    12.011   -9.878839    1.032447   -0.529306
  18 C     6.0000    0    12.011  -10.859605    0.969540    2.202814
  19 C     6.0000    0    12.011  -11.571913   -0.611997   -2.219547
  20 C     6.0000    0    12.011  -10.028528    3.762956   -1.478287
  21 C     6.0000    0    12.011   -6.758476   -2.476700    0.255025
  22 C     6.0000    0    12.011   -4.361003   -3.492471    0.257461
  23 H     1.0000    0     1.008   16.971615    4.054840    2.361626
  24 H     1.0000    0     1.008   16.493427    0.893867    1.302301
  25 H     1.0000    0     1.008   15.275884    1.882217    4.297586
  26 H     1.0000    0     1.008   12.976319   -1.560089    2.613467
  27 H     1.0000    0     1.008    9.153690   -4.054143    1.969056
  28 H     1.0000    0     1.008    5.561065    2.259477   -1.557147
  29 H     1.0000    0     1.008    9.417741    4.773954   -0.924798
  30 H     1.0000    0     1.008    3.534257   -5.975787   -0.255498
  31 H     1.0000    0     1.008    2.149303    0.338704   -0.152341
  32 H     1.0000    0     1.008   -1.188955    1.485070   -2.165296
  33 H     1.0000    0     1.008   -5.387193    3.254782   -2.152913
  34 H     1.0000    0     1.008  -12.763107    1.740887    2.283514
  35 H     1.0000    0     1.008   -9.645216    2.096589    3.420627
  36 H     1.0000    0     1.008  -10.910423   -0.946092    2.938909
  37 H     1.0000    0     1.008  -13.487610    0.132830   -2.232627
  38 H     1.0000    0     1.008  -11.639620   -2.552073   -1.551755
  39 H     1.0000    0     1.008  -10.860101   -0.618701   -4.148655
  40 H     1.0000    0     1.008   -9.423540    3.900378   -3.437245
  41 H     1.0000    0     1.008  -11.975128    4.414908   -1.368946
  42 H     1.0000    0     1.008   -8.875687    5.011204   -0.322741
  43 H     1.0000    0     1.008   -8.302770   -3.631074    0.920228
  44 H     1.0000    0     1.008   -4.041079   -5.401355    0.910768

--------------------------------
INTERNAL COORDINATES (ANGSTROEM)
--------------------------------
 C      0   0   0     0.000000000000     0.00000000     0.00000000
 O      1   0   0     1.415097179867     0.00000000     0.00000000
 C      2   1   0     1.354836228575   119.00715489     0.00000000
 C      3   2   1     1.393452321364   125.10575544   359.24950623
 C      4   3   2     1.380498999771   119.86667755   179.89567095
 C      5   4   3     1.394855098551   121.41115914   359.08565441
 C      6   5   4     1.398533567969   118.35922767     1.40841937
 C      7   6   5     1.374716356848   120.56123118   359.30566777
 C      6   5   4     1.463847548823   119.19421935   181.04458519
 O      9   6   5     1.328041852265   115.22838756   336.95539214
 C      9   6   5     1.371347546031   122.99308861   155.25547129
 C     11   9   6     1.433028101356   121.47098270   182.31649485
 O     12  11   9     1.250643553266   121.94288730   359.23571720
 C     12  11   9     1.479855010296   118.56122884   177.24434757
 C     14  12  11     1.391893616722   123.65705824    26.28880921
 C     15  14  12     1.382828666566   120.66361011   180.30358944
 C     16  15  14     1.391517937620   121.57768949     0.28904684
 C     17  16  15     1.519930637331   123.05248868   178.98969194
 C     18  17  16     1.536468047770   108.90344164   238.91800077
 C     18  17  16     1.536219850988   108.94660339   119.18545846
 C     18  17  16     1.531751170819   112.76541826   358.96707558
 C     17  16  15     1.394881845849   117.39687244   358.74128494
 C     22  17  16     1.377861121873   121.36861686     0.79403669
 H      1   2   3     1.088212874176   105.34472787   180.94016290
 H      1   2   3     1.093375848541   111.26952309    62.29998511
 H      1   2   3     1.093404777793   111.20282187   299.55263639
 H      4   3   2     1.077957959022   121.07849224   359.81553461
 H      5   4   3     1.079415570145   119.72809638   179.92003234
 H      7   6   5     1.078179769747   120.14111031   177.64127467
 H      8   7   6     1.078679045150   121.09498385   179.38572212
 H     10   9   6     1.002371599044   107.16585521   178.17321580
 H     11   9   6     1.073560811968   119.51230178   358.20814552
 H     15  14  12     1.079261839398   120.38110717     2.06849329
 H     16  15  14     1.077523513777   118.00003205   180.33384409
 H     19  18  17     1.087688691670   109.97638323   179.17324150
 H     19  18  17     1.088106032857   110.23849728    59.52767334
 H     19  18  17     1.086305334708   111.46865141   299.24221846
 H     20  18  17     1.087691865450   109.99854595   181.05762376
 H     20  18  17     1.086351397541   111.41764726    60.96200456
 H     20  18  17     1.088122438533   110.25438801   300.71627828
 H     21  18  17     1.087380043828   111.12520657    61.77538863
 H     21  18  17     1.087873704875   109.31026227   180.82551135
 H     21  18  17     1.087385233950   111.07873642   299.87694178
 H     22  17  16     1.079303630474   120.20277754   180.81734086
 H     23  22  17     1.080998862818   120.60010542   180.04610320

---------------------------
INTERNAL COORDINATES (A.U.)
---------------------------
 C      0   0   0     0.000000000000     0.00000000     0.00000000
 O      1   0   0     2.674146122832     0.00000000     0.00000000
 C      2   1   0     2.560269428322   119.00715489     0.00000000
 C      3   2   1     2.633243268055   125.10575544   359.24950623
 C      4   3   2     2.608765037720   119.86667755   179.89567095
 C      5   4   3     2.635894132765   121.41115914   359.08565441
 C      6   5   4     2.642845432558   118.35922767     1.40841937
 C      7   6   5     2.597837426265   120.56123118   359.30566777
 C      6   5   4     2.766270969088   119.19421935   181.04458519
 O      9   6   5     2.509635395167   115.22838756   336.95539214
 C      9   6   5     2.591471296424   122.99308861   155.25547129
 C     11   9   6     2.708030653777   121.47098270   182.31649485
 O     12  11   9     2.363373806827   121.94288730   359.23571720
 C     12  11   9     2.796520687371   118.56122884   177.24434757
 C     14  12  11     2.630297743159   123.65705824    26.28880921
 C     15  14  12     2.613167469946   120.66361011   180.30358944
 C     16  15  14     2.629587812540   121.57768949     0.28904684
 C     17  16  15     2.872252647111   123.05248868   178.98969194
 C     18  17  16     2.903503823805   108.90344164   238.91800077
 C     18  17  16     2.903034799861   108.94660339   119.18545846
 C     18  17  16     2.894590218161   112.76541826   358.96707558
 C     17  16  15     2.635944677833   117.39687244   358.74128494
 C     22  17  16     2.603780170917   121.36861686     0.79403669
 H      1   2   3     2.056424307600   105.34472787   180.94016290
 H      1   2   3     2.066180915186   111.26952309    62.29998511
 H      1   2   3     2.066235583549   111.20282187   299.55263639
 H      4   3   2     2.037045326432   121.07849224   359.81553461
 H      5   4   3     2.039799812264   119.72809638   179.92003234
 H      7   6   5     2.037464487955   120.14111031   177.64127467
 H      8   7   6     2.038407981733   121.09498385   179.38572212
 H     10   9   6     1.894207806614   107.16585521   178.17321580
 H     11   9   6     2.028735922730   119.51230178   358.20814552
 H     15  14  12     2.039509303254   120.38110717     2.06849329
 H     16  15  14     2.036224343899   118.00003205   180.33384409
 H     19  18  17     2.055433746219   109.97638323   179.17324150
 H     19  18  17     2.056222406768   110.23849728    59.52767334
 H     19  18  17     2.052819580415   111.46865141   299.24221846
 H     20  18  17     2.055439743795   109.99854595   181.05762376
 H     20  18  17     2.052906626555   111.41764726    60.96200456
 H     20  18  17     2.056253409001   110.25438801   300.71627828
 H     21  18  17     2.054850486326   111.12520657    61.77538863
 H     21  18  17     2.055783370509   109.31026227   180.82551135
 H     21  18  17     2.054860294236   111.07873642   299.87694178
 H     22  17  16     2.039588276943   120.20277754   180.81734086
 H     23  22  17     2.042791801806   120.60010542   180.04610320

---------------------
BASIS SET INFORMATION
---------------------
There are 3 groups of distinct atoms

 Group   1 Type C   : 7s4p1d contracted to 3s2p1d pattern {511/31/1}
 Group   2 Type O   : 7s4p1d contracted to 3s2p1d pattern {511/31/1}
 Group   3 Type H   : 4s1p contracted to 2s1p pattern {31/1}

Atom   0C    basis set group =>   1
Atom   1O    basis set group =>   2
Atom   2C    basis set group =>   1
Atom   3C    basis set group =>   1
Atom   4C    basis set group =>   1
Atom   5C    basis set group =>   1
Atom   6C    basis set group =>   1
Atom   7C    basis set group =>   1
Atom   8C    basis set group =>   1
Atom   9O    basis set group =>   2
Atom  10C    basis set group =>   1
Atom  11C    basis set group =>   1
Atom  12O    basis set group =>   2
Atom  13C    basis set group =>   1
Atom  14C    basis set group =>   1
Atom  15C    basis set group =>   1
Atom  16C    basis set group =>   1
Atom  17C    basis set group =>   1
Atom  18C    basis set group =>   1
Atom  19C    basis set group =>   1
Atom  20C    basis set group =>   1
Atom  21C    basis set group =>   1
Atom  22C    basis set group =>   1
Atom  23H    basis set group =>   3
Atom  24H    basis set group =>   3
Atom  25H    basis set group =>   3
Atom  26H    basis set group =>   3
Atom  27H    basis set group =>   3
Atom  28H    basis set group =>   3
Atom  29H    basis set group =>   3
Atom  30H    basis set group =>   3
Atom  31H    basis set group =>   3
Atom  32H    basis set group =>   3
Atom  33H    basis set group =>   3
Atom  34H    basis set group =>   3
Atom  35H    basis set group =>   3
Atom  36H    basis set group =>   3
Atom  37H    basis set group =>   3
Atom  38H    basis set group =>   3
Atom  39H    basis set group =>   3
Atom  40H    basis set group =>   3
Atom  41H    basis set group =>   3
Atom  42H    basis set group =>   3
Atom  43H    basis set group =>   3
Atom  44H    basis set group =>   3
---------------------------------
AUXILIARY/J BASIS SET INFORMATION
---------------------------------
There are 3 groups of distinct atoms

 Group   1 Type C   : 12s5p4d2f1g contracted to 6s4p3d1f1g pattern {711111/2111/211/2/1}
 Group   2 Type O   : 12s5p4d2f1g contracted to 6s4p3d1f1g pattern {711111/2111/211/2/1}
 Group   3 Type H   : 5s2p1d contracted to 3s1p1d pattern {311/2/1}

Atom   0C    basis set group =>   1
Atom   1O    basis set group =>   2
Atom   2C    basis set group =>   1
Atom   3C    basis set group =>   1
Atom   4C    basis set group =>   1
Atom   5C    basis set group =>   1
Atom   6C    basis set group =>   1
Atom   7C    basis set group =>   1
Atom   8C    basis set group =>   1
Atom   9O    basis set group =>   2
Atom  10C    basis set group =>   1
Atom  11C    basis set group =>   1
Atom  12O    basis set group =>   2
Atom  13C    basis set group =>   1
Atom  14C    basis set group =>   1
Atom  15C    basis set group =>   1
Atom  16C    basis set group =>   1
Atom  17C    basis set group =>   1
Atom  18C    basis set group =>   1
Atom  19C    basis set group =>   1
Atom  20C    basis set group =>   1
Atom  21C    basis set group =>   1
Atom  22C    basis set group =>   1
Atom  23H    basis set group =>   3
Atom  24H    basis set group =>   3
Atom  25H    basis set group =>   3
Atom  26H    basis set group =>   3
Atom  27H    basis set group =>   3
Atom  28H    basis set group =>   3
Atom  29H    basis set group =>   3
Atom  30H    basis set group =>   3
Atom  31H    basis set group =>   3
Atom  32H    basis set group =>   3
Atom  33H    basis set group =>   3
Atom  34H    basis set group =>   3
Atom  35H    basis set group =>   3
Atom  36H    basis set group =>   3
Atom  37H    basis set group =>   3
Atom  38H    basis set group =>   3
Atom  39H    basis set group =>   3
Atom  40H    basis set group =>   3
Atom  41H    basis set group =>   3
Atom  42H    basis set group =>   3
Atom  43H    basis set group =>   3
Atom  44H    basis set group =>   3


           ************************************************************
           *        Program running with 4 parallel MPI-processes     *
           *              working on a common directory               *
           ************************************************************
------------------------------------------------------------------------------
                             ORCA STARTUP CALCULATIONS
                           -- RI-GTO INTEGRALS CHOSEN --
------------------------------------------------------------------------------
------------------------------------------------------------------------------
                   ___                                                        
                  /   \      - P O W E R E D   B Y -                         
                 /     \                                                     
                 |  |  |   _    _      __       _____    __    __             
                 |  |  |  | |  | |    /  \     |  _  \  |  |  /  |          
                  \  \/   | |  | |   /    \    | | | |  |  | /  /          
                 / \  \   | |__| |  /  /\  \   | |_| |  |  |/  /          
                |  |  |   |  __  | /  /__\  \  |    /   |      \           
                |  |  |   | |  | | |   __   |  |    \   |  |\   \          
                \     /   | |  | | |  |  |  |  | |\  \  |  | \   \       
                 \___/    |_|  |_| |__|  |__|  |_| \__\ |__|  \__/        
                                                                              
                      - O R C A' S   B I G   F R I E N D -                    
                                      &                                       
                       - I N T E G R A L  F E E D E R -                       
                                                                              
 v1 FN, 2020, v2 2021, v3 2022-2024                                           
------------------------------------------------------------------------------


----------------------
SHARK INTEGRAL PACKAGE
----------------------

Number of atoms                             ...     45
Number of basis functions                   ...    432
Number of shells                            ...    204
Maximum angular momentum                    ...      2
Integral batch strategy                     ... SHARK/LIBINT Hybrid
RI-J (if used) integral strategy            ... SPLIT-RIJ (Revised 2003 algorithm where possible)
Printlevel                                  ...      1
Contraction scheme used                     ... SEGMENTED contraction
Prescreening option                         ... SCHWARTZ
   Thresh                                   ... 2.500e-11
   Tcut                                     ... 2.500e-12
   Tpresel                                  ... 2.500e-12 
Coulomb Range Separation                    ... NOT USED
Exchange Range Separation                   ... NOT USED
Multipole approximations                    ... NOT USED
Finite Nucleus Model                        ... NOT USED
CABS basis                                  ... NOT available
Auxiliary Coulomb fitting basis             ... AVAILABLE
   # of basis functions in Aux-J            ...   1369
   # of shells in Aux-J                     ...    455
   Maximum angular momentum in Aux-J        ...      4
Auxiliary J/K fitting basis                 ... NOT available
Auxiliary Correlation fitting basis         ... NOT available
Auxiliary 'external' fitting basis          ... NOT available

Checking pre-screening integrals            ... done (  0.0 sec) Dimension = 204
   => SHARK Basis and OBASIS are compatible. Storing Pre-screening
Shell pair information
Shell pair cut-off parameter TPreSel        ...   2.5e-12
Total number of shell pairs                 ...     20910
Shell pairs after pre-screening             ...     12304
Total number of primitive shell pairs       ...     75056
Primitive shell pairs kept                  ...     29034
          la=0 lb=0:   3887 shell pairs
          la=1 lb=0:   4600 shell pairs
          la=1 lb=1:   1412 shell pairs
          la=2 lb=0:   1417 shell pairs
          la=2 lb=1:    853 shell pairs
          la=2 lb=2:    135 shell pairs

Checking whether 4 symmetric matrices of dimension 432 fit in memory
:Max Core in MB      =   2500.00
 MB in use           =     15.51
 MB left             =   2484.49
 MB needed           =      2.85
 Data fit in memory  = YES
Calculating RI/J V-Matrix + Cholesky decomp.... done (  0.1 sec)
Calculating Nuclear repulsion               ... done (  0.0 sec) ENN=   1742.620917501880 Eh

Diagonalization of the overlap matrix:
Smallest eigenvalue                        ... 2.452e-04
Time for diagonalization                   ...    0.019 sec
Threshold for overlap eigenvalues          ... 1.000e-07
Number of eigenvalues below threshold      ... 0
Time for construction of square roots      ...    0.014 sec
Total time needed                          ...    0.036 sec

-------------------
DFT GRID GENERATION
-------------------

General Integration Accuracy     IntAcc      ... 4.388
Radial Grid Type                 RadialGrid  ... OptM3 with GC (2021)
Angular Grid (max. ang.)         AngularGrid ... 4 (Lebedev-302)
Angular grid pruning method      GridPruning ... 4 (adaptive)
Weight generation scheme         WeightScheme... mBecke (2022)
Basis function cutoff            BFCut       ... 1.0000e-11
Integration weight cutoff        WCut        ... 1.0000e-14
Partially contracted basis set               ... off
Rotationally invariant grid construction     ... off
Angular grids for H and He will be reduced by one unit

Total number of grid points                  ...   207519
Total number of batches                      ...     3267
Average number of points per batch           ...       63
Average number of grid points per atom       ...     4612

--------------------
COSX GRID GENERATION
--------------------

GRIDX 1
-------
General Integration Accuracy     IntAcc      ... 3.816
Radial Grid Type                 RadialGrid  ... OptM3 with GC (2021)
Angular Grid (max. ang.)         AngularGrid ... 1 (Lebedev-50)
Angular grid pruning method      GridPruning ... 4 (adaptive)
Weight generation scheme         WeightScheme... mBecke (2022)
Basis function cutoff            BFCut       ... 1.0000e-11
Integration weight cutoff        WCut        ... 1.0000e-14
Partially contracted basis set               ... on
Rotationally invariant grid construction     ... off
Angular grids for H and He will be reduced by one unit

Total number of grid points                  ...    26426
Total number of batches                      ...      232
Average number of points per batch           ...      113
Average number of grid points per atom       ...      587
UseSFitting                                  ... on

GRIDX 2
-------
General Integration Accuracy     IntAcc      ... 4.020
Radial Grid Type                 RadialGrid  ... OptM3 with GC (2021)
Angular Grid (max. ang.)         AngularGrid ... 2 (Lebedev-110)
Angular grid pruning method      GridPruning ... 4 (adaptive)
Weight generation scheme         WeightScheme... mBecke (2022)
Basis function cutoff            BFCut       ... 1.0000e-11
Integration weight cutoff        WCut        ... 1.0000e-14
Partially contracted basis set               ... on
Rotationally invariant grid construction     ... off
Angular grids for H and He will be reduced by one unit

Total number of grid points                  ...    56724
Total number of batches                      ...      469
Average number of points per batch           ...      120
Average number of grid points per atom       ...     1261
UseSFitting                                  ... on

GRIDX 3
-------
General Integration Accuracy     IntAcc      ... 4.338
Radial Grid Type                 RadialGrid  ... OptM3 with GC (2021)
Angular Grid (max. ang.)         AngularGrid ... 3 (Lebedev-194)
Angular grid pruning method      GridPruning ... 4 (adaptive)
Weight generation scheme         WeightScheme... mBecke (2022)
Basis function cutoff            BFCut       ... 1.0000e-11
Integration weight cutoff        WCut        ... 1.0000e-14
Partially contracted basis set               ... on
Rotationally invariant grid construction     ... off
Angular grids for H and He will be reduced by one unit

Total number of grid points                  ...   123890
Total number of batches                      ...      996
Average number of points per batch           ...      124
Average number of grid points per atom       ...     2753
UseSFitting                                  ... on
Grids setup in   4.3 sec
Initializing property integral containers    ... done (  0.1 sec)

SHARK setup successfully completed in   4.8 seconds

Maximum memory used throughout the entire STARTUP-calculation: 57.9 MB


           ************************************************************
           *        Program running with 4 parallel MPI-processes     *
           *              working on a common directory               *
           ************************************************************
-------------------------------------------------------------------------------
                                 ORCA GUESS
                   Start orbitals & Density for SCF / CASSCF
-------------------------------------------------------------------------------

------------
SCF SETTINGS
------------
Hamiltonian:
 Density Functional     Method          .... DFT(GTOs)
 Exchange Functional    Exchange        .... B88
   X-Alpha parameter    XAlpha          ....  0.666667
   Becke's b parameter  XBeta           ....  0.004200
 Correlation Functional Correlation     .... LYP
 LDA part of GGA corr.  LDAOpt          .... VWN-5
 Gradients option       PostSCFGGA      .... off
 Hybrid DFT is turned on
   Fraction HF Exchange ScalHFX         ....  0.200000
   Scaling of DF-GGA-X  ScalDFX         ....  0.720000
   Scaling of DF-GGA-C  ScalDFC         ....  0.810000
   Scaling of DF-LDA-C  ScalLDAC        ....  1.000000
   Perturbative correction              ....  0.000000
   NL short-range parameter             ....  4.800000
 RI-approximation to the Coulomb term is turned on
   Number of AuxJ basis functions       .... 1369
   RIJ-COSX (HFX calculated with COS-X)).... on


General Settings:
 Integral files         IntName         .... td
 Hartree-Fock type      HFTyp           .... RHF
 Total Charge           Charge          ....    0
 Multiplicity           Mult            ....    1
 Number of Electrons    NEL             ....  166
 Basis Dimension        Dim             ....  432
 Nuclear Repulsion      ENuc            ....   1742.6209175019 Eh

Convergence Acceleration:
 AO-DIIS                CNVDIIS         .... on
   Start iteration      DIISMaxIt       ....    12
   Startup error        DIISStart       ....  0.200000
   # of expansion vecs  DIISMaxEq       ....     5
   Bias factor          DIISBfac        ....   1.050
   Max. coefficient     DIISMaxC        ....  10.000
 MO-DIIS                CNVKDIIS        .... off
 Trust-Rad. Augm. Hess. CNVTRAH         .... auto
   Auto Start mean grad. ratio tolernc. ....  1.125000
   Auto Start start iteration           ....    50
   Auto Start num. interpolation iter.  ....    10
   Max. Number of Micro iterations      ....    24
   Max. Number of Macro iterations      .... Maxiter - #DIIS iter
   Number of Davidson start vectors     ....     2
   Converg. threshold    (grad. norm)   ....   1.000e-05
   Grad. Scal. Fac. for Micro threshold ....   0.100
   Minimum threshold for Micro iter.    ....   1.000e-02
   NR start threshold (gradient norm)   ....   1.000e-04
   Initial trust radius                 ....   0.400
   Minimum AH scaling param. (alpha)    ....   1.000
   Maximum AH scaling param. (alpha)    .... 1000.000
   Quad. conv. algorithm                .... NR
   White noise on init. David. guess    .... on
   Maximum white noise                  ....   0.010
   Pseudo random numbers                .... off
   Inactive MOs                         .... canonical
   Orbital update algorithm             .... Taylor
   Preconditioner                       .... Diag
   Full preconditioner red. dimension   ....   250
 SOSCF                 CNVSOSCF           .... on
   Start iteration     SOSCFMaxIt         ....   150
   Startup grad/error  SOSCFStart         ....  0.003300
   Hessian update      SOSCFHessUp        .... L-BFGS
   Autom. constraints  SOSCFAutoConstrain .... off
 Level Shifting         CNVShift        .... on
   Level shift para.    LevelShift      ....    0.2500
   Turn off err/grad.   ShiftErr        ....    0.0010
 Zerner damping         CNVZerner       .... off
 Static damping         CNVDamp         .... on
   Fraction old density DampFac         ....    0.7000
   Max. Damping (<1)    DampMax         ....    0.9800
   Min. Damping (>=0)   DampMin         ....    0.0000
   Turn off err/grad.   DampErr         ....    0.1000

SCF Procedure:
 Maximum # iterations   MaxIter         ....   300
 SCF integral mode      SCFMode         .... Direct
   Integral package                     .... SHARK and LIBINT hybrid scheme
 Reset frequency        DirectResetFreq ....    20
 Integral Threshold     Thresh          ....  2.500e-11 Eh
 Primitive CutOff       TCut            ....  2.500e-12 Eh

Convergence Tolerance:
 Convergence Check Mode ConvCheckMode   .... Total+1el-Energy
 Convergence forced     ConvForced      .... 1
 Energy Change          TolE            ....  1.000e-08 Eh
 1-El. energy change                    ....  1.000e-05 Eh
 Orbital Gradient       TolG            ....  1.000e-05
 Orbital Rotation angle TolX            ....  1.000e-05
 DIIS Error             TolErr          ....  5.000e-07

------------------------------
INITIAL GUESS: MODEL POTENTIAL
------------------------------
Loading Hartree-Fock densities                     ... done
Calculating cut-offs                               ... done
Initializing the effective Hamiltonian             ... done
Setting up the integral package (SHARK)            ... done
Starting the Coulomb interaction                   ... done (   0.5 sec)
Making the grid                                    ... done (   0.6 sec)
Mapping shells                                     ... done
Starting the XC term evaluation                    ... done (   0.5 sec)
  promolecular density results
     # of electrons  =    165.983284576
     EX              =   -134.071627377
     EC              =     -5.606948193
     EX+EC           =   -139.678575570
Transforming the Hamiltonian                       ... done (   0.0 sec)
Diagonalizing the Hamiltonian                      ... done (   0.0 sec)
Back transforming the eigenvectors                 ... done (   0.0 sec)
Now organizing SCF variables                       ... done
                      ------------------
                      INITIAL GUESS DONE (   1.7 sec)
                      ------------------
             **** ENERGY FILE WAS UPDATED (td.en.tmp) ****
Finished Guess after   1.9 sec
Maximum memory used throughout the entire GUESS-calculation: 21.8 MB


           ************************************************************
           *        Program running with 4 parallel MPI-processes     *
           *              working on a common directory               *
           ************************************************************

-------------------------------------------------------------------------------------------
                                      ORCA LEAN-SCF
                              memory conserving SCF solver
-------------------------------------------------------------------------------------------

----------------------------------------D-I-I-S--------------------------------------------
Iteration    Energy (Eh)           Delta-E    RMSDP     MaxDP     DIISErr   Damp  Time(sec)
-------------------------------------------------------------------------------------------
               ***  Starting incremental Fock matrix formation  ***
    1    -999.1695258290001220     0.00e+00  4.78e-03  9.05e-02  2.46e-01  0.700  11.6
    2    -999.4197937617873322    -2.50e-01  3.31e-03  5.32e-02  9.83e-02  0.700   5.8
                               ***Turning on AO-DIIS***
    3    -999.5249729031211245    -1.05e-01  1.50e-03  2.18e-02  4.26e-02  0.700   5.9
    4    -999.5869341049224204    -6.20e-02  2.82e-03  3.70e-02  2.20e-02  0.000   5.4
    5    -999.7202651206353039    -1.33e-01  4.26e-04  6.92e-03  7.27e-03  0.000   5.5
                              *** Initializing SOSCF ***
---------------------------------------S-O-S-C-F--------------------------------------
Iteration    Energy (Eh)           Delta-E    RMSDP     MaxDP     MaxGrad    Time(sec)
--------------------------------------------------------------------------------------
    6    -999.7210428468974897    -7.78e-04  1.54e-04  3.20e-03  1.41e-03     4.9
               *** Restarting incremental Fock matrix formation ***
    7    -999.7210066146708414     3.62e-05  1.02e-04  1.73e-03  2.44e-04    11.1
    8    -999.7210069225175175    -3.08e-07  4.07e-05  8.76e-04  4.18e-04     7.7
    9    -999.7210134281231149    -6.51e-06  2.83e-05  6.75e-04  1.44e-04     6.7
   10    -999.7210132167638221     2.11e-07  1.33e-05  2.27e-04  1.04e-04     6.4
   11    -999.7210141338528047    -9.17e-07  6.01e-06  1.31e-04  1.65e-05     6.0
   12    -999.7210141116020168     2.23e-08  3.59e-06  9.45e-05  2.18e-05     5.2
   13    -999.7210141699961241    -5.84e-08  1.11e-06  1.90e-05  4.02e-06     5.0
   14    -999.7210141730456598    -3.05e-09  6.46e-07  1.46e-05  5.90e-06     4.3
                 **** Energy Check signals convergence ****

               *****************************************************
               *                     SUCCESS                       *
               *           SCF CONVERGED AFTER  14 CYCLES          *
               *****************************************************

Recomputing exchange energy using gridx3       ... done (   18.791 sec)
Old exchange energy                            :    -27.234706021 Eh
New exchange energy                            :    -27.234885247 Eh
Exchange energy change after final integration :     -0.000179226 Eh
Total energy after final integration           :   -999.721193407 Eh
             **** ENERGY FILE WAS UPDATED (td.en.tmp) ****

----------------
TOTAL SCF ENERGY
----------------

Total Energy       :       -999.72119340653819 Eh          -27203.79669 eV

Components:
Nuclear Repulsion  :       1742.62091750187983 Eh           47419.12591 eV
Electronic Energy  :      -2742.34193168198408 Eh          -74622.91772 eV
One Electron Energy:      -4818.00469493567562 Eh         -131104.57298 eV
Two Electron Energy:       2075.66276325369154 Eh           56481.65526 eV

Virial components:
Potential Energy   :      -1990.14063380773041 Eh          -54154.47981 eV
Kinetic Energy     :        990.41944040119233 Eh           26950.68312 eV
Virial Ratio       :          2.00939173104435

DFT components:
N(Alpha)           :       83.000016605114 electrons
N(Beta)            :       83.000016605114 electrons
N(Total)           :      166.000033210228 electrons
E(X)               :     -108.149573976624 Eh       
E(C)               :       -6.605112200435 Eh       
E(XC)              :     -114.754686177059 Eh       

---------------
SCF CONVERGENCE
---------------

  Last Energy change         ...    3.0495e-09  Tolerance :   1.0000e-08
  Last MAX-Density change    ...    1.4589e-05  Tolerance :   1.0000e-07
  Last RMS-Density change    ...    6.4583e-07  Tolerance :   5.0000e-09
  Last DIIS Error            ...    1.4056e-03  Tolerance :   5.0000e-07
  Last Orbital Gradient      ...    5.8967e-06  Tolerance :   1.0000e-05
  Last Orbital Rotation      ...    8.6706e-06  Tolerance :   1.0000e-05


----------------
ORBITAL ENERGIES
----------------

  NO   OCC          E(Eh)            E(eV) 
   0   2.0000     -19.171743      -521.6897 
   1   2.0000     -19.155267      -521.2413 
   2   2.0000     -19.106910      -519.9255 
   3   2.0000     -10.263905      -279.2951 
   4   2.0000     -10.256709      -279.0992 
   5   2.0000     -10.255711      -279.0721 
   6   2.0000     -10.249056      -278.8910 
   7   2.0000     -10.197895      -277.4988 
   8   2.0000     -10.197571      -277.4900 
   9   2.0000     -10.194663      -277.4109 
  10   2.0000     -10.193301      -277.3738 
  11   2.0000     -10.191410      -277.3224 
  12   2.0000     -10.191302      -277.3194 
  13   2.0000     -10.188695      -277.2485 
  14   2.0000     -10.188545      -277.2444 
  15   2.0000     -10.184055      -277.1222 
  16   2.0000     -10.182375      -277.0765 
  17   2.0000     -10.182142      -277.0702 
  18   2.0000     -10.180945      -277.0376 
  19   2.0000     -10.173468      -276.8341 
  20   2.0000     -10.173324      -276.8302 
  21   2.0000     -10.173108      -276.8243 
  22   2.0000     -10.166495      -276.6444 
  23   2.0000      -1.066830       -29.0299 
  24   2.0000      -1.055902       -28.7326 
  25   2.0000      -1.003240       -27.2996 
  26   2.0000      -0.862194       -23.4615 
  27   2.0000      -0.860903       -23.4264 
  28   2.0000      -0.815956       -22.2033 
  29   2.0000      -0.785978       -21.3875 
  30   2.0000      -0.759816       -20.6756 
  31   2.0000      -0.751082       -20.4380 
  32   2.0000      -0.741134       -20.1673 
  33   2.0000      -0.731597       -19.9078 
  34   2.0000      -0.705889       -19.2082 
  35   2.0000      -0.682306       -18.5665 
  36   2.0000      -0.681323       -18.5397 
  37   2.0000      -0.646165       -17.5830 
  38   2.0000      -0.627028       -17.0623 
  39   2.0000      -0.616260       -16.7693 
  40   2.0000      -0.598687       -16.2911 
  41   2.0000      -0.578572       -15.7437 
  42   2.0000      -0.565850       -15.3976 
  43   2.0000      -0.548407       -14.9229 
  44   2.0000      -0.546524       -14.8717 
  45   2.0000      -0.515480       -14.0269 
  46   2.0000      -0.497113       -13.5271 
  47   2.0000      -0.486787       -13.2462 
  48   2.0000      -0.480884       -13.0855 
  49   2.0000      -0.476634       -12.9699 
  50   2.0000      -0.470185       -12.7944 
  51   2.0000      -0.453342       -12.3361 
  52   2.0000      -0.450315       -12.2537 
  53   2.0000      -0.443750       -12.0750 
  54   2.0000      -0.442981       -12.0541 
  55   2.0000      -0.436305       -11.8725 
  56   2.0000      -0.430674       -11.7192 
  57   2.0000      -0.427472       -11.6321 
  58   2.0000      -0.421392       -11.4667 
  59   2.0000      -0.418366       -11.3843 
  60   2.0000      -0.416578       -11.3357 
  61   2.0000      -0.400223       -10.8906 
  62   2.0000      -0.392188       -10.6720 
  63   2.0000      -0.391244       -10.6463 
  64   2.0000      -0.386530       -10.5180 
  65   2.0000      -0.380324       -10.3491 
  66   2.0000      -0.377689       -10.2774 
  67   2.0000      -0.372073       -10.1246 
  68   2.0000      -0.368195       -10.0191 
  69   2.0000      -0.356324        -9.6961 
  70   2.0000      -0.353599        -9.6219 
  71   2.0000      -0.349538        -9.5114 
  72   2.0000      -0.333648        -9.0790 
  73   2.0000      -0.332746        -9.0545 
  74   2.0000      -0.330758        -9.0004 
  75   2.0000      -0.327646        -8.9157 
  76   2.0000      -0.318289        -8.6611 
  77   2.0000      -0.268190        -7.2978 
  78   2.0000      -0.257402        -7.0043 
  79   2.0000      -0.254658        -6.9296 
  80   2.0000      -0.250033        -6.8038 
  81   2.0000      -0.244249        -6.6464 
  82   2.0000      -0.216868        -5.9013 
  83   0.0000      -0.065516        -1.7828 
  84   0.0000      -0.017732        -0.4825 
  85   0.0000      -0.013529        -0.3681 
  86   0.0000      -0.004441        -0.1209 
  87   0.0000       0.036371         0.9897 
  88   0.0000       0.053240         1.4487 
  89   0.0000       0.059068         1.6073 
  90   0.0000       0.063760         1.7350 
  91   0.0000       0.088482         2.4077 
  92   0.0000       0.089086         2.4242 
  93   0.0000       0.096873         2.6361 
*Only the first 10 virtual orbitals were printed.

                    ********************************
                    * MULLIKEN POPULATION ANALYSIS *
                    ********************************

-----------------------
MULLIKEN ATOMIC CHARGES
-----------------------
   0 C :    0.194104
   1 O :   -0.310726
   2 C :    0.244606
   3 C :   -0.074018
   4 C :    0.010707
   5 C :    0.055156
   6 C :    0.003714
   7 C :   -0.006304
   8 C :    0.175161
   9 O :   -0.175534
  10 C :   -0.178129
  11 C :    0.186598
  12 O :   -0.318888
  13 C :    0.046543
  14 C :    0.007463
  15 C :   -0.023940
  16 C :    0.121359
  17 C :   -0.279489
  18 C :    0.104118
  19 C :    0.105853
  20 C :    0.119957
  21 C :   -0.031651
  22 C :    0.011877
  23 H :    0.033520
  24 H :    0.021958
  25 H :    0.021236
  26 H :   -0.035814
  27 H :   -0.014376
  28 H :   -0.028158
  29 H :   -0.027789
  30 H :    0.197750
  31 H :   -0.021893
  32 H :   -0.038511
  33 H :   -0.042439
  34 H :   -0.003698
  35 H :    0.004284
  36 H :   -0.001770
  37 H :   -0.003712
  38 H :   -0.001537
  39 H :    0.004829
  40 H :    0.002903
  41 H :   -0.003703
  42 H :    0.002263
  43 H :   -0.032043
  44 H :   -0.021837
Sum of atomic charges:   -0.0000000

--------------------------------
MULLIKEN REDUCED ORBITAL CHARGES
--------------------------------
  0 C s       :     2.994575  s :     2.994575
      pz      :     0.956916  p :     2.757720
      px      :     0.802858
      py      :     0.997946
      dz2     :     0.011614  d :     0.053601
      dxz     :     0.011650
      dyz     :     0.007047
      dx2y2   :     0.008543
      dxy     :     0.014747

  1 O s       :     3.732561  s :     3.732561
      pz      :     1.701006  p :     4.561246
      px      :     1.245704
      py      :     1.614536
      dz2     :     0.002385  d :     0.016919
      dxz     :     0.002959
      dyz     :     0.002449
      dx2y2   :     0.002801
      dxy     :     0.006326

  2 C s       :     2.935743  s :     2.935743
      pz      :     0.962692  p :     2.744043
      px      :     0.859764
      py      :     0.921587
      dz2     :     0.008093  d :     0.075608
      dxz     :     0.012658
      dyz     :     0.011618
      dx2y2   :     0.019997
      dxy     :     0.023242

  3 C s       :     3.242977  s :     3.242977
      pz      :     1.012643  p :     2.797410
      px      :     0.852369
      py      :     0.932398
      dz2     :     0.003002  d :     0.033631
      dxz     :     0.004966
      dyz     :     0.005811
      dx2y2   :     0.010919
      dxy     :     0.008933

  4 C s       :     3.248082  s :     3.248082
      pz      :     0.944157  p :     2.704879
      px      :     0.943944
      py      :     0.816778
      dz2     :     0.003953  d :     0.036333
      dxz     :     0.007260
      dyz     :     0.004183
      dx2y2   :     0.011395
      dxy     :     0.009541

  5 C s       :     3.053724  s :     3.053724
      pz      :     1.022336  p :     2.850807
      px      :     0.912778
      py      :     0.915693
      dz2     :     0.004981  d :     0.040314
      dxz     :     0.005888
      dyz     :     0.006439
      dx2y2   :     0.010432
      dxy     :     0.012575

  6 C s       :     3.225924  s :     3.225924
      pz      :     0.928703  p :     2.733793
      px      :     0.849853
      py      :     0.955237
      dz2     :     0.003024  d :     0.036569
      dxz     :     0.005619
      dyz     :     0.006830
      dx2y2   :     0.010725
      dxy     :     0.010371

  7 C s       :     3.240243  s :     3.240243
      pz      :     1.004001  p :     2.732755
      px      :     0.930161
      py      :     0.798593
      dz2     :     0.003593  d :     0.033306
      dxz     :     0.006660
      dyz     :     0.003854
      dx2y2   :     0.010280
      dxy     :     0.008918

  8 C s       :     3.086916  s :     3.086916
      pz      :     0.871835  p :     2.655998
      px      :     0.956423
      py      :     0.827740
      dz2     :     0.005617  d :     0.081925
      dxz     :     0.009641
      dyz     :     0.017217
      dx2y2   :     0.024620
      dxy     :     0.024830

  9 O s       :     3.667846  s :     3.667846
      pz      :     1.720027  p :     4.493460
      px      :     1.512952
      py      :     1.260482
      dz2     :     0.001932  d :     0.014228
      dxz     :     0.000817
      dyz     :     0.002464
      dx2y2   :     0.005171
      dxy     :     0.003845

 10 C s       :     3.206316  s :     3.206316
      pz      :     1.180391  p :     2.943754
      px      :     0.922745
      py      :     0.840619
      dz2     :     0.002713  d :     0.028060
      dxz     :     0.003720
      dyz     :     0.002114
      dx2y2   :     0.009851
      dxy     :     0.009661

 11 C s       :     3.079241  s :     3.079241
      pz      :     0.813161  p :     2.641548
      px      :     0.945242
      py      :     0.883145
      dz2     :     0.005229  d :     0.092612
      dxz     :     0.006669
      dyz     :     0.019997
      dx2y2   :     0.023683
      dxy     :     0.037034

 12 O s       :     3.761812  s :     3.761812
      pz      :     1.452701  p :     4.541474
      px      :     1.764151
      py      :     1.324623
      dz2     :     0.001792  d :     0.015602
      dxz     :     0.000048
      dyz     :     0.004710
      dx2y2   :     0.005828
      dxy     :     0.003225

 13 C s       :     3.077447  s :     3.077447
      pz      :     1.001683  p :     2.836049
      px      :     0.923625
      py      :     0.910741
      dz2     :     0.004528  d :     0.039961
      dxz     :     0.005160
      dyz     :     0.005965
      dx2y2   :     0.011994
      dxy     :     0.012314

 14 C s       :     3.224659  s :     3.224659
      pz      :     0.943688  p :     2.731676
      px      :     0.852857
      py      :     0.935131
      dz2     :     0.003068  d :     0.036201
      dxz     :     0.005751
      dyz     :     0.005370
      dx2y2   :     0.010266
      dxy     :     0.011746

 15 C s       :     3.235978  s :     3.235978
      pz      :     0.988706  p :     2.752579
      px      :     0.936590
      py      :     0.827283
      dz2     :     0.002992  d :     0.035384
      dxz     :     0.006904
      dyz     :     0.003571
      dx2y2   :     0.011953
      dxy     :     0.009964

 16 C s       :     3.060115  s :     3.060115
      pz      :     0.933182  p :     2.775823
      px      :     0.917836
      py      :     0.924805
      dz2     :     0.004475  d :     0.042703
      dxz     :     0.007156
      dyz     :     0.006055
      dx2y2   :     0.012712
      dxy     :     0.012306

 17 C s       :     3.200914  s :     3.200914
      pz      :     1.015388  p :     3.026268
      px      :     0.988462
      py      :     1.022418
      dz2     :     0.012005  d :     0.052308
      dxz     :     0.009267
      dyz     :     0.009915
      dx2y2   :     0.011309
      dxy     :     0.009811

 18 C s       :     2.955158  s :     2.955158
      pz      :     0.946829  p :     2.911506
      px      :     0.974365
      py      :     0.990312
      dz2     :     0.006576  d :     0.029218
      dxz     :     0.005363
      dyz     :     0.006484
      dx2y2   :     0.006430
      dxy     :     0.004365

 19 C s       :     2.953942  s :     2.953942
      pz      :     0.974253  p :     2.910992
      px      :     0.963416
      py      :     0.973323
      dz2     :     0.008489  d :     0.029212
      dxz     :     0.004179
      dyz     :     0.003889
      dx2y2   :     0.008333
      dxy     :     0.004321

 20 C s       :     2.923645  s :     2.923645
      pz      :     0.979472  p :     2.927360
      px      :     0.974469
      py      :     0.973420
      dz2     :     0.007609  d :     0.029037
      dxz     :     0.003490
      dyz     :     0.005427
      dx2y2   :     0.006477
      dxy     :     0.006035

 21 C s       :     3.241215  s :     3.241215
      pz      :     0.977881  p :     2.754929
      px      :     0.856672
      py      :     0.920376
      dz2     :     0.002956  d :     0.035506
      dxz     :     0.005289
      dyz     :     0.004953
      dx2y2   :     0.010264
      dxy     :     0.012046

 22 C s       :     3.252925  s :     3.252925
      pz      :     0.942479  p :     2.699274
      px      :     0.937244
      py      :     0.819551
      dz2     :     0.002950  d :     0.035924
      dxz     :     0.007254
      dyz     :     0.003455
      dx2y2   :     0.011519
      dxy     :     0.010746

 23 H s       :     0.944651  s :     0.944651
      pz      :     0.004490  p :     0.021829
      px      :     0.006789
      py      :     0.010550

 24 H s       :     0.955249  s :     0.955249
      pz      :     0.006968  p :     0.022793
      px      :     0.005194
      py      :     0.010631

 25 H s       :     0.955963  s :     0.955963
      pz      :     0.013785  p :     0.022801
      px      :     0.003217
      py      :     0.005800

 26 H s       :     1.011824  s :     1.011824
      pz      :     0.007328  p :     0.023990
      px      :     0.010839
      py      :     0.005823

 27 H s       :     0.990539  s :     0.990539
      pz      :     0.005331  p :     0.023836
      px      :     0.003737
      py      :     0.014768

 28 H s       :     1.004469  s :     1.004469
      pz      :     0.007083  p :     0.023689
      px      :     0.011051
      py      :     0.005555

 29 H s       :     1.004220  s :     1.004220
      pz      :     0.005738  p :     0.023568
      px      :     0.003684
      py      :     0.014146

 30 H s       :     0.724831  s :     0.724831
      pz      :     0.014535  p :     0.077419
      px      :     0.044829
      py      :     0.018056

 31 H s       :     0.997187  s :     0.997187
      pz      :     0.006175  p :     0.024706
      px      :     0.003864
      py      :     0.014667

 32 H s       :     1.014861  s :     1.014861
      pz      :     0.006257  p :     0.023650
      px      :     0.010298
      py      :     0.007094

 33 H s       :     1.018528  s :     1.018528
      pz      :     0.006208  p :     0.023911
      px      :     0.004086
      py      :     0.013617

 34 H s       :     0.979863  s :     0.979863
      pz      :     0.004243  p :     0.023835
      px      :     0.012936
      py      :     0.006655

 35 H s       :     0.972038  s :     0.972038
      pz      :     0.007617  p :     0.023678
      px      :     0.008175
      py      :     0.007886

 36 H s       :     0.977748  s :     0.977748
      pz      :     0.005626  p :     0.024022
      px      :     0.005364
      py      :     0.013032

 37 H s       :     0.979873  s :     0.979873
      pz      :     0.004932  p :     0.023839
      px      :     0.012919
      py      :     0.005988

 38 H s       :     0.977538  s :     0.977538
      pz      :     0.005718  p :     0.023999
      px      :     0.005062
      py      :     0.013219

 39 H s       :     0.971498  s :     0.971498
      pz      :     0.012951  p :     0.023673
      px      :     0.005788
      py      :     0.004934

 40 H s       :     0.973180  s :     0.973180
      pz      :     0.013394  p :     0.023918
      px      :     0.006232
      py      :     0.004291

 41 H s       :     0.979963  s :     0.979963
      pz      :     0.005272  p :     0.023740
      px      :     0.013199
      py      :     0.005268

 42 H s       :     0.973827  s :     0.973827
      pz      :     0.007819  p :     0.023911
      px      :     0.008147
      py      :     0.007944

 43 H s       :     1.008394  s :     1.008394
      pz      :     0.006013  p :     0.023649
      px      :     0.010274
      py      :     0.007362

 44 H s       :     0.998073  s :     0.998073
      pz      :     0.005341  p :     0.023764
      px      :     0.004150
      py      :     0.014273



                     *******************************
                     * LOEWDIN POPULATION ANALYSIS *
                     *******************************

----------------------
LOEWDIN ATOMIC CHARGES
----------------------
   0 C :    0.087030
   1 O :   -0.095516
   2 C :    0.062389
   3 C :   -0.072261
   4 C :    0.016999
   5 C :   -0.061993
   6 C :    0.005483
   7 C :   -0.040693
   8 C :    0.115348
   9 O :   -0.020700
  10 C :   -0.166267
  11 C :    0.084903
  12 O :   -0.211851
  13 C :   -0.055420
  14 C :   -0.006099
  15 C :   -0.031024
  16 C :    0.006746
  17 C :   -0.048110
  18 C :   -0.027498
  19 C :   -0.027241
  20 C :   -0.034399
  21 C :   -0.021409
  22 C :    0.012718
  23 H :    0.027555
  24 H :    0.014551
  25 H :    0.014406
  26 H :    0.025684
  27 H :    0.031545
  28 H :    0.027451
  29 H :    0.030340
  30 H :    0.064809
  31 H :    0.021830
  32 H :    0.022819
  33 H :    0.022682
  34 H :    0.018229
  35 H :    0.021885
  36 H :    0.017337
  37 H :    0.018250
  38 H :    0.017607
  39 H :    0.022142
  40 H :    0.019034
  41 H :    0.020975
  42 H :    0.019039
  43 H :    0.021145
  44 H :    0.029552

-------------------------------
LOEWDIN REDUCED ORBITAL CHARGES
-------------------------------
  0 C s       :     2.840565  s :     2.840565
      pz      :     1.020950  p :     2.949851
      px      :     0.869691
      py      :     1.059210
      dz2     :     0.028221  d :     0.122554
      dxz     :     0.024465
      dyz     :     0.017102
      dx2y2   :     0.016980
      dxy     :     0.035786

  1 O s       :     3.433721  s :     3.433721
      pz      :     1.695583  p :     4.630160
      px      :     1.298496
      py      :     1.636080
      dz2     :     0.004027  d :     0.031635
      dxz     :     0.006041
      dyz     :     0.003260
      dx2y2   :     0.005968
      dxy     :     0.012339

  2 C s       :     2.835594  s :     2.835594
      pz      :     0.973101  p :     2.926432
      px      :     0.931288
      py      :     1.022043
      dz2     :     0.017342  d :     0.175585
      dxz     :     0.027425
      dyz     :     0.025432
      dx2y2   :     0.048743
      dxy     :     0.056644

  3 C s       :     2.850194  s :     2.850194
      pz      :     1.036939  p :     3.131299
      px      :     1.049412
      py      :     1.044949
      dz2     :     0.007051  d :     0.090768
      dxz     :     0.011637
      dyz     :     0.014277
      dx2y2   :     0.030852
      dxy     :     0.026951

  4 C s       :     2.850721  s :     2.850721
      pz      :     0.959805  p :     3.037758
      px      :     1.039809
      py      :     1.038145
      dz2     :     0.009008  d :     0.094522
      dxz     :     0.017757
      dyz     :     0.009441
      dx2y2   :     0.031596
      dxy     :     0.026720

  5 C s       :     2.841095  s :     2.841095
      pz      :     1.029628  p :     3.112931
      px      :     1.029737
      py      :     1.053566
      dz2     :     0.011253  d :     0.107968
      dxz     :     0.014198
      dyz     :     0.015826
      dx2y2   :     0.030635
      dxy     :     0.036056

  6 C s       :     2.849787  s :     2.849787
      pz      :     0.970622  p :     3.049783
      px      :     1.038543
      py      :     1.040618
      dz2     :     0.007100  d :     0.094948
      dxz     :     0.013023
      dyz     :     0.016132
      dx2y2   :     0.029524
      dxy     :     0.029169

  7 C s       :     2.853888  s :     2.853888
      pz      :     1.013014  p :     3.097542
      px      :     1.048359
      py      :     1.036168
      dz2     :     0.008246  d :     0.089263
      dxz     :     0.016914
      dyz     :     0.008945
      dx2y2   :     0.029168
      dxy     :     0.025990

  8 C s       :     2.845845  s :     2.845845
      pz      :     0.857733  p :     2.854400
      px      :     1.083773
      py      :     0.912894
      dz2     :     0.011864  d :     0.184407
      dxz     :     0.019340
      dyz     :     0.034543
      dx2y2   :     0.057974
      dxy     :     0.060686

  9 O s       :     3.416730  s :     3.416730
      pz      :     1.694124  p :     4.577007
      px      :     1.559215
      py      :     1.323669
      dz2     :     0.003877  d :     0.026963
      dxz     :     0.000563
      dyz     :     0.003734
      dx2y2   :     0.010827
      dxy     :     0.007962

 10 C s       :     2.855815  s :     2.855815
      pz      :     1.146993  p :     3.227980
      px      :     1.039552
      py      :     1.041435
      dz2     :     0.007298  d :     0.082472
      dxz     :     0.008286
      dyz     :     0.003969
      dx2y2   :     0.032056
      dxy     :     0.030864

 11 C s       :     2.852754  s :     2.852754
      pz      :     0.801512  p :     2.846953
      px      :     1.045442
      py      :     0.999999
      dz2     :     0.012418  d :     0.215389
      dxz     :     0.012862
      dyz     :     0.039079
      dx2y2   :     0.059071
      dxy     :     0.091958

 12 O s       :     3.546467  s :     3.546467
      pz      :     1.453014  p :     4.638069
      px      :     1.740583
      py      :     1.444472
      dz2     :     0.003857  d :     0.027315
      dxz     :     0.000065
      dyz     :     0.005797
      dx2y2   :     0.011859
      dxy     :     0.005737

 13 C s       :     2.852034  s :     2.852034
      pz      :     0.999287  p :     3.096090
      px      :     1.039896
      py      :     1.056907
      dz2     :     0.010695  d :     0.107296
      dxz     :     0.011738
      dyz     :     0.014558
      dx2y2   :     0.034356
      dxy     :     0.035950

 14 C s       :     2.851360  s :     2.851360
      pz      :     0.972046  p :     3.060045
      px      :     1.050456
      py      :     1.037543
      dz2     :     0.007272  d :     0.094695
      dxz     :     0.013103
      dyz     :     0.012577
      dx2y2   :     0.028717
      dxy     :     0.033026

 15 C s       :     2.849133  s :     2.849133
      pz      :     0.997541  p :     3.088102
      px      :     1.058837
      py      :     1.031724
      dz2     :     0.007107  d :     0.093788
      dxz     :     0.016311
      dyz     :     0.007984
      dx2y2   :     0.033909
      dxy     :     0.028477

 16 C s       :     2.854167  s :     2.854167
      pz      :     0.938795  p :     3.029879
      px      :     1.037587
      py      :     1.053497
      dz2     :     0.010013  d :     0.109207
      dxz     :     0.015435
      dyz     :     0.014649
      dx2y2   :     0.035154
      dxy     :     0.033956

 17 C s       :     2.841017  s :     2.841017
      pz      :     1.033795  p :     3.087729
      px      :     1.022733
      py      :     1.031202
      dz2     :     0.027700  d :     0.119364
      dxz     :     0.020818
      dyz     :     0.021086
      dx2y2   :     0.027254
      dxy     :     0.022506

 18 C s       :     2.833891  s :     2.833891
      pz      :     1.009618  p :     3.118989
      px      :     1.050505
      py      :     1.058867
      dz2     :     0.018090  d :     0.074617
      dxz     :     0.013813
      dyz     :     0.015458
      dx2y2   :     0.016211
      dxy     :     0.011045

 19 C s       :     2.833760  s :     2.833760
      pz      :     1.041525  p :     3.118868
      px      :     1.036533
      py      :     1.040810
      dz2     :     0.020732  d :     0.074613
      dxz     :     0.011240
      dyz     :     0.010549
      dx2y2   :     0.020379
      dxy     :     0.011712

 20 C s       :     2.831629  s :     2.831629
      pz      :     1.051260  p :     3.128238
      px      :     1.059641
      py      :     1.017337
      dz2     :     0.019427  d :     0.074532
      dxz     :     0.008963
      dyz     :     0.013786
      dx2y2   :     0.017781
      dxy     :     0.014575

 21 C s       :     2.849100  s :     2.849100
      pz      :     0.985834  p :     3.078348
      px      :     1.049646
      py      :     1.042868
      dz2     :     0.006980  d :     0.093961
      dxz     :     0.011929
      dyz     :     0.011622
      dx2y2   :     0.029110
      dxy     :     0.034320

 22 C s       :     2.852861  s :     2.852861
      pz      :     0.952089  p :     3.040718
      px      :     1.055668
      py      :     1.032961
      dz2     :     0.006995  d :     0.093703
      dxz     :     0.016774
      dyz     :     0.007397
      dx2y2   :     0.032647
      dxy     :     0.029890

 23 H s       :     0.908856  s :     0.908856
      pz      :     0.011520  p :     0.063589
      px      :     0.021613
      py      :     0.030456

 24 H s       :     0.919760  s :     0.919760
      pz      :     0.019123  p :     0.065689
      px      :     0.015758
      py      :     0.030808

 25 H s       :     0.919894  s :     0.919894
      pz      :     0.040800  p :     0.065700
      px      :     0.010097
      py      :     0.014803

 26 H s       :     0.902198  s :     0.902198
      pz      :     0.022435  p :     0.072118
      px      :     0.031452
      py      :     0.018231

 27 H s       :     0.897211  s :     0.897211
      pz      :     0.016431  p :     0.071244
      px      :     0.012238
      py      :     0.042575

 28 H s       :     0.902466  s :     0.902466
      pz      :     0.020789  p :     0.070083
      px      :     0.031975
      py      :     0.017319

 29 H s       :     0.899095  s :     0.899095
      pz      :     0.018124  p :     0.070565
      px      :     0.011780
      py      :     0.040661

 30 H s       :     0.717792  s :     0.717792
      pz      :     0.039868  p :     0.217400
      px      :     0.137464
      py      :     0.040068

 31 H s       :     0.901116  s :     0.901116
      pz      :     0.021451  p :     0.077053
      px      :     0.012972
      py      :     0.042631

 32 H s       :     0.906939  s :     0.906939
      pz      :     0.018577  p :     0.070242
      px      :     0.029992
      py      :     0.021673

 33 H s       :     0.906200  s :     0.906200
      pz      :     0.018906  p :     0.071118
      px      :     0.012736
      py      :     0.039476

 34 H s       :     0.915285  s :     0.915285
      pz      :     0.013199  p :     0.066486
      px      :     0.036671
      py      :     0.016617

 35 H s       :     0.911727  s :     0.911727
      pz      :     0.023360  p :     0.066388
      px      :     0.022105
      py      :     0.020922

 36 H s       :     0.915462  s :     0.915462
      pz      :     0.017309  p :     0.067201
      px      :     0.012900
      py      :     0.036992

 37 H s       :     0.915252  s :     0.915252
      pz      :     0.012905  p :     0.066497
      px      :     0.037397
      py      :     0.016196

 38 H s       :     0.915260  s :     0.915260
      pz      :     0.015763  p :     0.067133
      px      :     0.013048
      py      :     0.038322

 39 H s       :     0.911471  s :     0.911471
      pz      :     0.037840  p :     0.066387
      px      :     0.015790
      py      :     0.012757

 40 H s       :     0.913952  s :     0.913952
      pz      :     0.038327  p :     0.067014
      px      :     0.015212
[...]
    81a ->  85a  :     0.122254 (c=  0.34964809)

STATE 18:  E=   0.228472 au      6.217 eV    50143.8 cm**-1 <S**2> =   0.000000 Mult 1
    70a ->  83a  :     0.010136 (c=  0.10067700)
    71a ->  83a  :     0.037291 (c= -0.19310924)
    76a ->  83a  :     0.847003 (c= -0.92032764)
    76a ->  84a  :     0.028474 (c= -0.16874318)
    78a ->  85a  :     0.028798 (c= -0.16970071)

Storing amplitudes in GBW file ... 
... GBW file created

-----------------------------
TD-DFT/TDA-EXCITATION SPECTRA
-----------------------------

Center of mass = (  1.2013, -0.5024,  0.0082)
Generating CIS transition densities           ... done

----------------------------------------------------------------------------------------------------
                     ABSORPTION SPECTRUM VIA TRANSITION ELECTRIC DIPOLE MOMENTS    
----------------------------------------------------------------------------------------------------
     Transition      Energy     Energy  Wavelength fosc(D2)      D2        DX        DY        DZ   
                      (eV)      (cm-1)    (nm)                 (au**2)    (au)      (au)      (au)  
----------------------------------------------------------------------------------------------------
  0-1A  ->  1-1A    3.762821   30349.2   329.5   0.042415541   0.46010  -0.67711  -0.03600  -0.01812
  0-1A  ->  2-1A    3.914783   31574.9   316.7   1.044292698  10.88821   3.24482   0.49658   0.33579
  0-1A  ->  3-1A    4.572667   36881.0   271.1   0.067433865   0.60194  -0.54309   0.55270  -0.03896
  0-1A  ->  4-1A    4.591045   37029.3   270.1   0.065054416   0.57837   0.70464  -0.27484  -0.07946
  0-1A  ->  5-1A    4.681242   37756.8   264.9   0.008147585   0.07104  -0.20412   0.16195   0.05612
  0-1A  ->  6-1A    4.926817   39737.5   251.7   0.014330369   0.11872  -0.26225  -0.22134   0.03088
  0-1A  ->  7-1A    5.067362   40871.0   244.7   0.104045353   0.83807   0.75055   0.52142   0.05356
  0-1A  ->  8-1A    5.205609   41986.1   238.2   0.050204282   0.39365  -0.53112   0.26660  -0.20121
  0-1A  ->  9-1A    5.316283   42878.7   233.2   0.047096452   0.36159  -0.54787  -0.14113  -0.20376
  0-1A  -> 10-1A    5.475188   44160.4   226.4   0.010505803   0.07832   0.19976  -0.19256  -0.03657
  0-1A  -> 11-1A    5.647525   45550.4   219.5   0.004859560   0.03512   0.02093  -0.18489   0.02237
  0-1A  -> 12-1A    5.721644   46148.2   216.7   0.043390991   0.30954  -0.40212  -0.38247   0.03944
  0-1A  -> 13-1A    5.829766   47020.2   212.7   0.019264220   0.13488  -0.35604   0.07442  -0.05071
  0-1A  -> 14-1A    5.837285   47080.9   212.4   0.039791774   0.27824  -0.47371   0.20711  -0.10463
  0-1A  -> 15-1A    5.880865   47432.4   210.8   0.030145967   0.20923  -0.43091   0.07328  -0.13483
  0-1A  -> 16-1A    6.027240   48613.0   205.7   0.028382135   0.19221  -0.19514   0.38808   0.05932
  0-1A  -> 17-1A    6.063184   48902.9   204.5   0.037574980   0.25295  -0.47716   0.15874   0.00878
  0-1A  -> 18-1A    6.217034   50143.8   199.4   0.004804118   0.03154   0.12394  -0.11819  -0.04701

----------------------------------------------------------------------------------------------------
                     ABSORPTION SPECTRUM VIA TRANSITION VELOCITY DIPOLE MOMENTS    
----------------------------------------------------------------------------------------------------
     Transition      Energy     Energy  Wavelength fosc(P2)      P2        PX        PY        PZ   
                      (eV)      (cm-1)    (nm)                 (au**2)    (au)      (au)      (au)  
----------------------------------------------------------------------------------------------------
  0-1A  ->  1-1A    3.762821   30349.2   329.5   0.018651785   0.00387   0.06110   0.00513   0.01044
  0-1A  ->  2-1A    3.914783   31574.9   316.7   0.394397956   0.08511  -0.29066   0.00474  -0.02456
  0-1A  ->  3-1A    4.572667   36881.0   271.1   0.023828796   0.00601   0.06862   0.03576  -0.00428
  0-1A  ->  4-1A    4.591045   37029.3   270.1   0.019469377   0.00493  -0.06912  -0.00642  -0.01040
  0-1A  ->  5-1A    4.681242   37756.8   264.9   0.004897543   0.00126   0.03488   0.00463   0.00510
  0-1A  ->  6-1A    4.926817   39737.5   251.7   0.000803016   0.00022   0.01198  -0.00768   0.00395
  0-1A  ->  7-1A    5.067362   40871.0   244.7   0.029245637   0.00817  -0.08559  -0.01166  -0.02660
  0-1A  ->  8-1A    5.205609   41986.1   238.2   0.004456292   0.00128   0.01995   0.02793  -0.01004
  0-1A  ->  9-1A    5.316283   42878.7   233.2   0.022625176   0.00663   0.06473   0.04847   0.00959
  0-1A  -> 10-1A    5.475188   44160.4   226.4   0.004460205   0.00135  -0.03664  -0.00120  -0.00159
  0-1A  -> 11-1A    5.647525   45550.4   219.5   0.000840366   0.00026  -0.01048  -0.00647   0.01048
  0-1A  -> 12-1A    5.721644   46148.2   216.7   0.021874395   0.00690   0.08019  -0.01702   0.01338
  0-1A  -> 13-1A    5.829766   47020.2   212.7   0.009360873   0.00301   0.05480   0.00107   0.00189
  0-1A  -> 14-1A    5.837285   47080.9   212.4   0.021131761   0.00680   0.08222  -0.00569   0.00265
  0-1A  -> 15-1A    5.880865   47432.4   210.8   0.014198527   0.00460   0.06762   0.00492   0.00250
  0-1A  -> 16-1A    6.027240   48613.0   205.7   0.007626028   0.00253   0.04961   0.00187  -0.00832
  0-1A  -> 17-1A    6.063184   48902.9   204.5   0.022012201   0.00736   0.08567   0.00387  -0.00183
  0-1A  -> 18-1A    6.217034   50143.8   199.4   0.002265893   0.00078  -0.02711  -0.00034   0.00646

------------------------------------------------------------------------------------------
                     CD SPECTRUM VIA TRANSITION ELECTRIC DIPOLE MOMENTS    
------------------------------------------------------------------------------------------
     Transition      Energy     Energy  Wavelength    R        MX        MY        MZ   
                      (eV)      (cm-1)    (nm)   (1e40*cgs)   (au)      (au)      (au)  
------------------------------------------------------------------------------------------
  0-1A  ->  1-1A    3.762821   30349.2   329.5   -1.08673   0.00692  -0.23145   0.07413
  0-1A  ->  2-1A    3.914783   31574.9   316.7   41.21254  -0.00382   0.07062  -0.32783
  0-1A  ->  3-1A    4.572667   36881.0   271.1   -9.74765  -0.04707   0.00463   0.19115
  0-1A  ->  4-1A    4.591045   37029.3   270.1  -27.25882   0.06345  -0.01340  -0.11867
  0-1A  ->  5-1A    4.681242   37756.8   264.9    8.90195   0.01579  -0.06856  -0.08118
  0-1A  ->  6-1A    4.926817   39737.5   251.7    1.56619   0.00962   0.00552   0.01373
  0-1A  ->  7-1A    5.067362   40871.0   244.7  -16.60709   0.01773   0.05241  -0.10093
  0-1A  ->  8-1A    5.205609   41986.1   238.2    2.65361   0.01899   0.01864   0.00256
  0-1A  ->  9-1A    5.316283   42878.7   233.2    5.53126   0.01841  -0.07169   0.05774
  0-1A  -> 10-1A    5.475188   44160.4   226.4   11.45606  -0.03788   0.09486  -0.04196
  0-1A  -> 11-1A    5.647525   45550.4   219.5   -0.75138   0.03648   0.00360   0.06684
  0-1A  -> 12-1A    5.721644   46148.2   216.7   -3.36292   0.06694  -0.10026  -0.10891
  0-1A  -> 13-1A    5.829766   47020.2   212.7   -7.04342  -0.06382  -0.03055   0.10864
  0-1A  -> 14-1A    5.837285   47080.9   212.4    3.02398  -0.02328  -0.04278   0.08200
  0-1A  -> 15-1A    5.880865   47432.4   210.8   18.03672   0.03487  -0.04378   0.14852
  0-1A  -> 16-1A    6.027240   48613.0   205.7  -11.02091  -0.06246   0.00586   0.15027
  0-1A  -> 17-1A    6.063184   48902.9   204.5   -4.84334  -0.03518  -0.04670   0.10251
  0-1A  -> 18-1A    6.217034   50143.8   199.4   -0.28960  -0.01231   0.02234  -0.10167

------------------------------------------------------------------------------------------
                     CD SPECTRUM VIA TRANSITION VELOCITY DIPOLE MOMENTS    
------------------------------------------------------------------------------------------
     Transition      Energy     Energy  Wavelength    R        MX        MY        MZ   
                      (eV)      (cm-1)    (nm)   (1e40*cgs)   (au)      (au)      (au)  
------------------------------------------------------------------------------------------
  0-1A  ->  1-1A    3.762821   30349.2   329.5    0.03267   0.00692  -0.23145   0.07413
  0-1A  ->  2-1A    3.914783   31574.9   316.7   31.12057  -0.00382   0.07062  -0.32783
  0-1A  ->  3-1A    4.572667   36881.0   271.1  -10.89529  -0.04707   0.00463   0.19115
  0-1A  ->  4-1A    4.591045   37029.3   270.1   -8.56590   0.06345  -0.01340  -0.11867
  0-1A  ->  5-1A    4.681242   37756.8   264.9   -0.49605   0.01579  -0.06856  -0.08118
  0-1A  ->  6-1A    4.926817   39737.5   251.7    0.33107   0.00962   0.00552   0.01373
  0-1A  ->  7-1A    5.067362   40871.0   244.7    1.40823   0.01773   0.05241  -0.10093
  0-1A  ->  8-1A    5.205609   41986.1   238.2    2.15328   0.01899   0.01864   0.00256
  0-1A  ->  9-1A    5.316283   42878.7   233.2   -4.17381   0.01841  -0.07169   0.05774
  0-1A  -> 10-1A    5.475188   44160.4   226.4    3.14030  -0.03788   0.09486  -0.04196
  0-1A  -> 11-1A    5.647525   45550.4   219.5    0.66997   0.03648   0.00360   0.06684
  0-1A  -> 12-1A    5.721644   46148.2   216.7   12.59398   0.06694  -0.10026  -0.10891
  0-1A  -> 13-1A    5.829766   47020.2   212.7   -7.31558  -0.06382  -0.03055   0.10864
  0-1A  -> 14-1A    5.837285   47080.9   212.4   -3.19284  -0.02328  -0.04278   0.08200
  0-1A  -> 15-1A    5.880865   47432.4   210.8    5.48405   0.03487  -0.04378   0.14852
  0-1A  -> 16-1A    6.027240   48613.0   205.7   -9.23441  -0.06246   0.00586   0.15027
  0-1A  -> 17-1A    6.063184   48902.9   204.5   -7.15604  -0.03518  -0.04670   0.10251
  0-1A  -> 18-1A    6.217034   50143.8   199.4   -0.68259  -0.01231   0.02234  -0.10167

Total run time:      132.797 sec

           *** ORCA-CIS/TD-DFT FINISHED WITHOUT ERROR ***
-----------------------
CIS/TD-DFT TOTAL ENERGY
-----------------------

    E(SCF)  =   -999.721193407 Eh
    DE(CIS) =      0.138281135 Eh (Root  1)
    ----------------------------- ---------
    E(tot)  =   -999.582912272 Eh


Maximum memory used throughout the entire CIS-calculation: 725.5 MB
=> NOW LEAVING ORCA_CIS

-------------------------   --------------------
FINAL SINGLE POINT ENERGY      -999.582912271723
-------------------------   --------------------



           ************************************************************
           *        Program running with 4 parallel MPI-processes     *
           *              working on a common directory               *
           ************************************************************

------------------------------------------------------------------------------
                              ORCA PROPERTY CALCULATIONS
------------------------------------------------------------------------------

GBWName                                 ... td.gbw
Number of atoms                         ...     45
Number of basis functions               ...    432
Max core memory                         ...   2500 MB

Electric properties:
Dipole moment                           ... YES
Quadrupole moment                       ...  NO
Static polarizability (Dipole/Dipole)   ...  NO
Static polarizability (Dipole/Quad.)    ...  NO
Static polarizability (Quad./Quad.)     ...  NO
Static polarizability (Velocity)        ...  NO
Static hyperpolarizability              ...  NO

Atomic electric properties:
Dipole moment                           ...  NO
Quadrupole moment                       ...  NO
Static polarizability                   ...  NO

Choice of electric origin               ... Center of mass
Position of electric origin             ...     1.201272    -0.502435     0.008214

General magnetic properties:
Magnetizability                         ...  NO

EPR properties:
g-Tensor (aka g-matrix)                 ...  NO
Zero-Field splitting spin-orbit         ...  NO
Zero-field splitting spin-spin          ...  NO
Hyperfine couplings                     ...  NO (   0 nuclei)
Quadrupole couplings                    ...  NO (   0 nuclei)
Contact density                         ...  NO (   0 nuclei)

NMR properties:
Chemical shifts                         ...  NO (   0 nuclei)
Spin-rotation constants                 ...  NO (   0 nuclei)
Spin-spin couplings                     ...  NO (   0 nuclei,    0 pairs)

Choice of magnetic origin               ... GIAO
Position of magnetic origin             ...     0.000000     0.000000     0.000000

Properties with geometric perturbations:
SCF Hessian                             ...  NO
IR spectrum                             ...  NO
VCD spectrum                            ...  NO
X-ray spectroscopy properties:
SCF XES/XAS/RIXS spectra                ...  NO

SCF SOC stabilization energy            ...  NO
Diagonal Born-Oppenheimer correction    ...  NO

-------------
DIPOLE MOMENT
-------------

Method             : SCF
Type of density    : Electron Density
Multiplicity       :   1
Irrep              :   0
Energy             :  -999.7211934065381911 Eh
Basis              : AO
                                X                 Y                 Z
Electronic contribution:     26.944496510     -10.024642351      -0.868351241
Nuclear contribution   :    -26.387387460      11.151247937       1.278706064
                        -----------------------------------------
Total Dipole Moment    :      0.557109050       1.126605586       0.410354822
                        -----------------------------------------
Magnitude (a.u.)       :      1.322120161
Magnitude (Debye)      :      3.360562381



--------------------
Rotational spectrum 
--------------------
 
Rotational constants in cm-1:             0.022788             0.002639             0.002432 
Rotational constants in MHz :           683.157990            79.110665            72.911629 

Dipole components along the rotational axes: 
x,y,z [a.u.] :    -0.626537    -1.108838    -0.354869 
x,y,z [Debye]:    -1.592531    -2.818441    -0.902006 

 

Dipole moment calculation done in   0.0 sec 

Maximum memory used throughout the entire PROP-calculation: 22.8 MB

--------------------------------
SUGGESTED CITATIONS FOR THIS RUN
--------------------------------

Below you find a list of papers that are relevant to this ORCA run
We neither can nor want to force you to cite these papers, but we appreciate if you do
You receive ORCA, which is the product of decades of hard work by many enthusiastic individuals, for free
The only thing we kindly ask in return is that you cite our papers,
We deeply appreciate it, if you show your appreciation for ORCA by not just citing the generic ORCA reference.

Please note that relegating all ORCA citations to the supporting information does *not* help us.
SI sections are not indexed - citations you put there will not count into any citation statistics
But we need these citations in order to attract the funding resources that allow us to do what we are doing

Therefore, if you are a happy ORCA user, please consider citing a few of the papers listed below in the main body of your paper

In addition to the list printed below, the program has created the file td.bibtex that contains the list in bibtex format
You can import this file easily into all common literature databanks and citation aid programs

It goes without saying that in many instances, there are alternative algorithms to achieve similar
results as the ones you have gotten from ORCA. It is, of course, also the case that in some instances
ORCA just re-implements algorithms worked out by others. We are fully aware of that and we are also
fully appreciative of our colleagues work. Hence this citation list should not be read as indicating
that the listed papers, which are focused on our own work, are the only ones worth citing. It simply
meant to make it easier for users to cite ORCA specific papers. It is not a substitute for doing your
own literature research and citing the relevant literature in a scientifically appropriate manner.

List of essential papers. We consider these as the minimum necessary citations

  1. Neese, F.
     Software update: the ORCA program system, version 6.0
     WIRES Comput. Molec. Sci. 2025 15(1), e70019
     doi.org/10.1002/wcms.70019

List of papers to cite with high priority. The work reported in these papers was absolutely
necessary for this run to complete.
Our perspective: the developers of density functionals and basis sets usually get cited in chemistry papers
Good! But without the algorithms to do something with them, the functionals or basis sets would not do anything.
Hence, in our opinion, the algorithm design and method developments papers are equally worthy of getting cited

  1. Neese, F.; Olbrich, G.
     Efficient use of the resolution of the identity approximation in time-dependent density functional calculations with hybrid density functionals
     Chem. Phys. Lett. 2002 362 , 170-178
     doi.org/10.1016/s0009-2614(02)01053-9
  2. Neese, F.
     An improvement of the resolution of the identity approximation for the formation of the Coulomb matrix
     J. Comp. Chem. 2003 24(14), 1740-1747
     doi.org/10.1002/jcc.10318
  3. Neese, F.; Wennmohs, F.; Hansen, A.; Becker, U.
     Efficient, approximate and parallel Hartree-Fock and hybrid DFT calculations. A 'chain-of-spheres' algorithm for the Hartree-Fock exchange
     Chem. Phys. 2009 356(1-3), 98-109
     doi.org/10.1016/j.chemphys.2008.10.036
  4. Helmich-Paris, B.; de Souza, B.; Neese, F.; Izsák, R.
     An improved chain of spheres for exchange algorithm
     J. Chem. Phys. 2021 155(10), 104109
     doi.org/10.1063/5.0058766
  5. Neese, F.
     The SHARK Integral Generation and Digestion System
     J. Comp. Chem. 2022 44(3), 381
     doi.org/10.1002/jcc.26942

List of suggested additional citations. These are papers that are important in the 'surrounding' of 
of this run, or papers that preceded the highly important papers. If you like your results we are grateful for a citation.

  1. Izsak, R.; Neese, F.
     An overlap fitted chain of spheres exchange method
     J. Chem. Phys. 2011 135 , 144105
     doi.org/10.1063/1.3646921
  2. Izsak, R.; Hansen, A.; Neese, F.
     The resolution of identity and chain of spheres approximations for the LPNO-CCSD singles Fock term
     Molec. Phys. 2012 110 , 2413-2417
     doi.org/10.1080/00268976.2012.687466
  3. Neese, F.
     The ORCA program system
     WIRES Comput. Molec. Sci. 2012 2(1), 73-78
     doi.org/10.1002/wcms.81
  4. Izsak, R.; Neese, F.; Klopper, W.
     Robust fitting techniques in the chain of spheres approximation to the Fock exchange: The role of the complementary space
     J. Chem. Phys. 2013 139 , 
     doi.org/10.1063/1.4819264
  5. Neese, F.
     Software update: the ORCA program system, version 4.0
     WIRES Comput. Molec. Sci. 2018 8(1), 1-6
     doi.org/10.1002/wcms.1327
  6. Neese, F.; Wennmohs, F.; Becker, U.; Riplinger, C.
     The ORCA quantum chemistry program package
     J. Chem. Phys. 2020 152(22), 224108
     doi.org/10.1063/5.0004608
  7. Neese, F.
     Software update: The ORCA program system—Version 5.0
     WIRES Comput. Molec. Sci. 2022 12(1), e1606
     doi.org/10.1002/wcms.1606

List of optional additional citations

  1. Neese, F.
     Approximate second-order SCF convergence for spin unrestricted wavefunctions
     Chem. Phys. Lett. 2000 325(1-3), 93-98
     doi.org/10.1016/s0009-2614(00)00662-x

Timings for individual modules:

Sum of individual times          ...      255.263 sec (=   4.254 min)
Startup calculation              ...        4.940 sec (=   0.082 min)   1.9 %
SCF iterations                   ...      116.681 sec (=   1.945 min)  45.7 %
Property integrals               ...        0.375 sec (=   0.006 min)   0.1 %
Property calculations            ...        0.268 sec (=   0.004 min)   0.1 %
CIS module                       ...      132.999 sec (=   2.217 min)  52.1 %
                             ****ORCA TERMINATED NORMALLY****
TOTAL RUN TIME: 0 days 0 hours 4 minutes 15 seconds 992 msec
