
                                 *****************
                                 * O   R   C   A *
                                 *****************

                                            #,                                       
                                            ###                                      
                                            ####                                     
                                            #####                                    
                                            ######                                   
                                           ########,                                 
                                     ,,################,,,,,                         
                               ,,#################################,,                 
                          ,,##########################################,,             
                       ,#########################################, ''#####,          
                    ,#############################################,,   '####,        
                  ,##################################################,,,,####,       
                ,###########''''           ''''###############################       
              ,#####''   ,,,,##########,,,,          '''####'''          '####       
            ,##' ,,,,###########################,,,                        '##       
           ' ,,###''''                  '''############,,,                           
         ,,##''                                '''############,,,,        ,,,,,,###''
      ,#''                                            '''#######################'''  
     '                                                          ''''####''''         
             ,#######,   #######,   ,#######,      ##                                
            ,#'     '#,  ##    ##  ,#'     '#,    #''#        ,####,    ,#,          
            ##       ##  ##   ,#'  ##            #'  '#       #'       ,# #          
            ##       ##  #######   ##           ,######,      #####,      #          
            '#,     ,#'  ##    ##  '#,     ,#' ,#      #,     #,   #      #          
             '#######'   ##     ##  '#######'  #'      '#     '####' #    #          



                #########################################################
                #                        -***-                          #
                #          Department of theory and spectroscopy        #
                #                                                       #
                #                      Frank Neese                      #
                #                                                       #
                #     Directorship, Architecture, Infrastructure        #
                #                    SHARK, DRIVERS                     #
                #        Core code/Algorithms in most modules           #
                #                                                       #
                #        Max Planck Institute fuer Kohlenforschung      #
                #                Kaiser Wilhelm Platz 1                 #
                #                 D-45470 Muelheim/Ruhr                 #
                #                      Germany                          #
                #                                                       #
                #                  All rights reserved                  #
                #                        -***-                          #
                #########################################################


                         Program Version 6.1.1  -  RELEASE   -


 With contributions from (in alphabetic order):
[Max-Planck-Institut fuer Kohlenforschung]                               
  Daniel Aravena         : Magnetic Suceptibility                        
  Michael Atanasov       : Ab Initio Ligand Field Theory (pilot matlab implementation)
  Alexander A. Auer      : GIAO ZORA, VPT2 properties, NMR spectrum      
  Ute Becker             : All parallelization in ORCA, NUMFREQ, NUMCALC 
  Giovanni Bistoni       : ED, misc. LED, open-shell LED, HFLD           
  Dmytro Bykov           : pre 5.0 version of the SCF Hessian            
  Marcos Casanova-Páez   : Triplet and SCS-CIS(D). UHF-(DLPNO)-IP/EA/STEOM-CCSD. UHF-CVS-IP/STEOM-CCSD   
  Vijay G. Chilkuri      : MRCI spin determinant printing, contributions to CSF-ICE 
  Pauline Colinet        : FMM embedding                                 
  Dipayan Datta          : RHF DLPNO-CCSD density                        
  Achintya Kumar Dutta   : EOM-CC, STEOM-CC                              
  Nicolas Foglia         : Exact transition moments, OPA infrastructure, MCD improvements    
  Dmitry Ganyushin       : Spin-Orbit,Spin-Spin,Magnetic field MRCI      
  Miquel Garcia-Rates    : C-PCM and meta-GGA Hessian, CCSD/C-PCM, Gaussian charge scheme 
  Tiago L. C. Gouveia    : GS-ROHF, GS-ROCIS                             
  Yang Guo               : DLPNO-NEVPT2, F12-NEVPT2, CIM, IAO-localization        
  Andreas Hansen         : Spin unrestricted coupled pair/coupled cluster methods 
  Ingolf Harden          : AUTO-CI MPn and infrastructure                
  Benjamin Helmich-Paris : MC-RPA, TRAH-(SCF,CASSCF), AVAS, COSX integrals, SCF dyn. polar., MC-PDFT, srDFT 
  Lee Huntington         : MR-EOM, pCC                                   
  Robert Izsak           : Overlap fitted RIJCOSX, COSX-SCS-MP3, EOM     
  Riya Kayal             : Wick's Theorem for AUTO-CI, AUTO-CI UHF-CCSDT 
  Emily Kempfer          : AUTO-CI RHF CISDT and CCSDT, approximate NEVPT4
  Christian Kollmar      : KDIIS, OOCD, Brueckner-CCSD(T), CCSD density, CASPT2, CASPT2-K, improved NEVPT2 
  Axel Koslowski         : Symmetry handling                             
  Simone Kossmann        : meta-GGA functionals, TD-DFT gradient, OOMP2, (MP2 Hessian; deprecated post 5.0) 
  Lucas Lang             : DCDCAS, Hyperfine gauge corrections, ICE-SOC+SSC
  Marvin Lechner         : AUTO-CI (C++ implementation), FIC-MRCC        
  Spencer Leger          : CASSCF response                               
  Dagmar Lenk            : GEPOL surface, SMD, ORCA-2-JSON               
  Dimitrios Liakos       : Extrapolation schemes; Compound Job, Property file
  Dimitrios Manganas     : Further ROCIS development; embedding schemes. LFT, Crystal Embedding 
  Dimitrios Pantazis     : SARC Basis sets                               
  Anastasios Papadopoulos: AUTO-CI, single reference methods and gradients 
  Taras Petrenko         : pre 6.0 DFT Hessian and TD-DFT gradient,  ECA, NRVS 
  Petra Pikulova         : Analytic Raman intensities                    
  Peter Pinski           : DLPNO-MP2, DLPNO-MP2 Gradient                 
  Shashank Vittal Rao    : ES-AILFT, MagRelax                            
  Christoph Reimann      : Effective Core Potentials                     
  Marius Retegan         : Local ZFS, SOC                                
  Christoph Riplinger    : Optimizer, TS searches, QM/MM, DLPNO-CCSD(T), (RO)-DLPNO pert. Triples 
  Michael Roemelt        : Original ROCIS implementation, recursive CI coupling coefficients
  Masaaki Saitow         : Open-shell DLPNO-CCSD energy and density      
  Barbara Sandhoefer     : DKH picture change effects                    
  Yorick L. A. Schmerwitz: GMF and freeze-and-release deltaSCF, NEB S-IDPP initial path                    
  Kantharuban Sivalingam : CASSCF convergence/infrastructure, NEVPT2, NEVPT3, NEVPT4(SD), FIC-MRCI and CEPA variants
  Bernardo de Souza      : ESD, SOC TD-DFT                               
  Georgi L. Stoychev     : AutoAux, RI-MP2 NMR, DLPNO-MP2 response, X2C  
  Van Anh Tran           : RI-MP2 g-tensors                              
  Willem Van den Heuvel  : Paramagnetic NMR                              
  Zikuan Wang            : NOTCH, Electric field optimization            
  Frank Wennmohs         : Technical directorship and infrastructure     
  Hang Xu                : AUTO-CI-Response properties                   
                                                                         
[FACCTs GmbH]                                                            
  Markus Bursch, Nicolas Foglia, Miquel Garcia-Rates, Ingolf Harden, Hagen Neugebauer, Anastasios Papadopoulos, 
  Christoph Riplinger, Bernardo de Souza, Georgi L. Stoychev                                                    
                                                                 
  APM, various basis sets, CI-OPT, improved COSX, DLPNO-Multilevel,           
  DOCKER, DRACO, updates on ESD, Fragmentator, GOAT, IRC, LR-CPCM, L-BFGS, MBIS, meta-GGA TD-DFT gradient, ML-optimized integration grids, 
  MM, NACMEs, nearIR, NEB, NEB-TS, NL-DFT gradient (VV10), 2- and 3-layer-ONIOM, interface openCOSMO-RS, QMMM,   
  Crystal-QMMM, RESP, rigid body optimization, SF, symmetry and pop. for TD-DFT, various functionals, SOLVATOR                                   
                                                                         
[Other institutions]                                                     
  V. Asgeirsson          : NEB                                           
  Christoph Bannwarth    : sTDA-DFT, sTD-DFT, PBEh-3c, B97-3c, D3        
  Giovanni Bistoni       : ETS/NOCV, ADLD/ADEX, COVALED                  
  Martin Brehm           : Molecular dynamics                            
  Ronald Cardenas        : ETS/NOCV                                      
  Martina Colucci        : COVALED                                       
  Sebastian Ehlert       : rSCAN, r2SCAN, r2SCAN-3c, D4, dhf basis sets  
  Marvin Friede          : D4 for Fr, Ra, Ac-Lr                          
  Lars Goerigk           : TD-DFT with DH, B97 family of functionals     
  Stefan Grimme          : VdW corrections, initial TS optimization, DFT functionals, gCP, sTDA/sTD-DF 
  Waldemar Hujo          : DFT-NL                                        
  H. Jonsson             : NEB                                           
  Holger Kruse           : gCP                                           
  Marcel Mueller         : wB97X-3c, vDZP basis set                      
  Hagen Neugebauer       : wr2SCAN, Native XTB                           
  Gianluca Regni         : ADLD/ADEX                                     
  Tobias Risthaus        : pre 6.0 range-separated hybrid DFT and stability analysis
  Lukas Wittmann         : regularized MP2, r2SCAN double-hybrids, wr2SCAN        
                                                                         
We gratefully acknowledge several colleagues who have allowed us to      
interface, adapt or use parts of their codes:                            
  Ed Valeev, F. Pavosevic, A. Kumar             : LibInt (2-el integral package), F12 methods 
  Garnet Chan, S. Sharma, J. Yang, R. Olivares  : DMRG                   
  Ulf Ekstrom                                   : XCFun DFT Library      
  Mihaly Kallay                                 : mrcc  (arbitrary order and MRCC methods)
  Frank Weinhold                                : gennbo (NPA and NBO analysis)           
  Simon Mueller                                 : openCOSMO-RS                            
  Christopher J. Cramer and Donald G. Truhlar   : smd solvation model                     
  S Lehtola, MJT Oliveira, MAL Marques          : LibXC Library                           
  Liviu Ungur et al                             : ANISO software                          


 Your calculation uses the libint2 library for the computation of 2-el integrals
 For citations please refer to: http://libint.valeyev.net

 Your ORCA version has been built with support for libXC version: 7.0.0
 For citations please refer to: https://libxc.gitlab.io

 This ORCA versions uses:
   CBLAS   interface :  Fast vector & matrix operations
   LAPACKE interface :  Fast linear algebra routines
   Shared memory     :  Shared parallel matrices


  ***********************************
  * Starting time: Wed Jul 22 09:37:05 2026
  * Host name:     DESKTOP-19Q153E
  * Process ID:    45268
  * Working dir.:  C:\Users\ysm04\Documents\etc\uv_vis\calculations\02_tddft_orca\enolA\enolA_c000\camb3lyp_def2svp\none\dftopt22
  ***********************************

NOTE: MaxCore=2500 MB was set to SCF,MP2,MDCI,CIPSI,MRCI,RASCI and CIS
      => If you want to overwrite this, your respective input block should be placed after the MaxCore statement
XCFun DFT library Copyright 2009-2010 Ulf Ekstrom and contributors.
See http://admol.org/xcfun for more information.
This is free software; see the source code for copying conditions.
There is ABSOLUTELY NO WARRANTY; not even for MERCHANTABILITY or FITNESS FOR A PARTICULAR PURPOSE.
For details see the documentation.
Scientific users of this library should cite U. Ekstrom, L. Visscher, R. Bast, A. J. Thorvaldsen and K. Ruud;
J.Chem.Theor.Comp. 2010, DOI: 10.1021/ct100117s
XCFun Version 0.99 

================================================================================

----- Orbital basis set information -----
Your calculation utilizes the basis: def2-SVP
   F. Weigend and R. Ahlrichs, Phys. Chem. Chem. Phys. 7, 3297 (2005).

----- AuxJ basis set information -----
Your calculation utilizes the auxiliary basis: def2/J
   H-Rn: F. Weigend, Phys. Chem. Chem. Phys. 8, 1057 (2006).
   Fr-Lr: K. Eichkorn, F. Weigend, O. Treutler, R. Ahlrichs; Theor. Chem. Acc. 97, 119 (1997).

================================================================================
                                        WARNINGS
                       Please study these warnings very carefully!
================================================================================


WARNING: CIS/ROCIS methods need fully converged wavefunctions
  ===> : Setting SCFConvForced true
         You can overwrite this default with %scf ConvForced false 


================================================================================
                                       INPUT FILE
================================================================================
NAME = td.inp
|  1> # enolA / enolA_c000 / camb3lyp_def2svp / solvent=none
|  2> ! CAM-B3LYP def2-SVP RIJCOSX def2/J TightSCF
|  3> %pal nprocs 4 end
|  4> %maxcore 2500
|  5> %scf
|  6>   MaxIter 300
|  7> end
|  8> %tddft
|  9>   nroots 22
| 10>   tda    true
| 11>   maxdim 5
| 12> end
| 13> * xyz 0 1
| 14> C     -6.4464437539     0.1126843508    -0.2593233986
| 15> C     -5.3361748559    -0.1997566761     0.7608485581
| 16> C     -5.5371897047     0.7137443489     1.9936696337
| 17> C     -5.4722864059    -1.6803002750     1.1898519635
| 18> C     -3.9289767496     0.0334154976     0.1810493147
| 19> C     -3.7071144182     0.4984888100    -1.1266125553
| 20> C     -2.4164415614     0.6983681094    -1.6220910513
| 21> C     -1.2857629286     0.4362406950    -0.8291848868
| 22> C     -1.4983311564    -0.0265346848     0.4852593253
| 23> C     -2.7877900426    -0.2199399260     0.9719343279
| 24> C      0.0661703711     0.6497965916    -1.3897923632
| 25> O      0.0959623555     1.1970521222    -2.5936299767
| 26> C      1.2453135767     0.3092001534    -0.7436873683
| 27> C      2.5143919797     0.5518716766    -1.3809546772
| 28> O      2.5637497138     1.0794761367    -2.5280956999
| 29> C      3.7909493267     0.1872035299    -0.7074185620
| 30> C      3.8566385347    -0.4226743177     0.5648627044
| 31> C      5.0779430177    -0.7416595820     1.1430608111
| 32> C      6.2837306116    -0.4610959975     0.4677297204
| 33> O      7.4195074738    -0.8061302538     1.1074695819
| 34> C      8.6774055050    -0.5574544669     0.4926290353
| 35> C      6.2369092305     0.1464803654    -0.8015222796
| 36> C      5.0026336411     0.4597930029    -1.3684818177
| 37> H     -7.4303823884    -0.0730354629     0.1997522890
| 38> H     -6.4235142386     1.1655688153    -0.5825094635
| 39> H     -6.3715275103    -0.5231652080    -1.1558806775
| 40> H     -4.8001801122     0.5052431310     2.7846378949
| 41> H     -6.5415054293     0.5575691011     2.4210923868
| 42> H     -5.4469597023     1.7765308362     1.7155420539
| 43> H     -4.7326606539    -1.9552110716     1.9576123761
| 44> H     -6.4756107231    -1.8625293559     1.6091547159
| 45> H     -5.3355855113    -2.3541618969     0.3283118147
| 46> H     -4.5487296010     0.7132874607    -1.7855896260
| 47> H     -2.2801745558     1.0595150762    -2.6425276291
| 48> H     -0.6531578318    -0.2329382632     1.1444467590
| 49> H     -2.9038633140    -0.5776821109     1.9976351182
| 50> H      1.0918641651     1.2666262333    -2.8276495632
| 51> H      1.2023191057    -0.1496735751     0.2388864970
| 52> H      2.9465878604    -0.6567904380     1.1193437919
| 53> H      5.1286203622    -1.2138327796     2.1268720903
| 54> H      9.4401348508    -0.9175984082     1.1951761860
| 55> H      8.7740776218    -1.1038265241    -0.4608167348
| 56> H      8.8300752892     0.5196754114     0.3101075653
| 57> H      7.1517318187     0.3762545366    -1.3484469876
| 58> H      4.9636467270     0.9301998824    -2.3527211866
| 59> *
| 60> 
| 61>                          ****END OF INPUT****
================================================================================

                       ****************************
                       * Single Point Calculation *
                       ****************************

---------------------------------
CARTESIAN COORDINATES (ANGSTROEM)
---------------------------------
  C     -6.446444    0.112684   -0.259323
  C     -5.336175   -0.199757    0.760849
  C     -5.537190    0.713744    1.993670
  C     -5.472286   -1.680300    1.189852
  C     -3.928977    0.033415    0.181049
  C     -3.707114    0.498489   -1.126613
  C     -2.416442    0.698368   -1.622091
  C     -1.285763    0.436241   -0.829185
  C     -1.498331   -0.026535    0.485259
  C     -2.787790   -0.219940    0.971934
  C      0.066170    0.649797   -1.389792
  O      0.095962    1.197052   -2.593630
  C      1.245314    0.309200   -0.743687
  C      2.514392    0.551872   -1.380955
  O      2.563750    1.079476   -2.528096
  C      3.790949    0.187204   -0.707419
  C      3.856639   -0.422674    0.564863
  C      5.077943   -0.741660    1.143061
  C      6.283731   -0.461096    0.467730
  O      7.419507   -0.806130    1.107470
  C      8.677406   -0.557454    0.492629
  C      6.236909    0.146480   -0.801522
  C      5.002634    0.459793   -1.368482
  H     -7.430382   -0.073035    0.199752
  H     -6.423514    1.165569   -0.582509
  H     -6.371528   -0.523165   -1.155881
  H     -4.800180    0.505243    2.784638
  H     -6.541505    0.557569    2.421092
  H     -5.446960    1.776531    1.715542
  H     -4.732661   -1.955211    1.957612
  H     -6.475611   -1.862529    1.609155
  H     -5.335586   -2.354162    0.328312
  H     -4.548730    0.713287   -1.785590
  H     -2.280175    1.059515   -2.642528
  H     -0.653158   -0.232938    1.144447
  H     -2.903863   -0.577682    1.997635
  H      1.091864    1.266626   -2.827650
  H      1.202319   -0.149674    0.238886
  H      2.946588   -0.656790    1.119344
  H      5.128620   -1.213833    2.126872
  H      9.440135   -0.917598    1.195176
  H      8.774078   -1.103827   -0.460817
  H      8.830075    0.519675    0.310108
  H      7.151732    0.376255   -1.348447
  H      4.963647    0.930200   -2.352721

----------------------------
CARTESIAN COORDINATES (A.U.)
----------------------------
  NO LB      ZA    FRAG     MASS         X           Y           Z
   0 C     6.0000    0    12.011  -12.182013    0.212943   -0.490050
   1 C     6.0000    0    12.011  -10.083909   -0.377485    1.437795
   2 C     6.0000    0    12.011  -10.463772    1.348781    3.767490
   3 C     6.0000    0    12.011  -10.341123   -3.175307    2.248494
   4 C     6.0000    0    12.011   -7.424690    0.063146    0.342134
   5 C     6.0000    0    12.011   -7.005431    0.942007   -2.128989
   6 C     6.0000    0    12.011   -4.566413    1.319724   -3.065308
   7 C     6.0000    0    12.011   -2.429740    0.824375   -1.566932
   8 C     6.0000    0    12.011   -2.831436   -0.050143    0.917007
   9 C     6.0000    0    12.011   -5.268160   -0.415626    1.836690
  10 C     6.0000    0    12.011    0.125044    1.227938   -2.626327
  11 O     8.0000    0    15.999    0.181343    2.262101   -4.901250
  12 C     6.0000    0    12.011    2.353302    0.584304   -1.405365
  13 C     6.0000    0    12.011    4.751512    1.042886   -2.609626
  14 O     8.0000    0    15.999    4.844785    2.039914   -4.777409
  15 C     6.0000    0    12.011    7.163856    0.353763   -1.336827
  16 C     6.0000    0    12.011    7.287991   -0.798739    1.067436
  17 C     6.0000    0    12.011    9.595922   -1.401533    2.160072
  18 C     6.0000    0    12.011   11.874530   -0.871345    0.883881
  19 O     8.0000    0    15.999   14.020837   -1.523365    2.092814
  20 C     6.0000    0    12.011   16.397920   -1.053436    0.930934
  21 C     6.0000    0    12.011   11.786050    0.276808   -1.514658
  22 C     6.0000    0    12.011    9.453608    0.868883   -2.586056
  23 H     1.0000    0     1.008  -14.041388   -0.138017    0.377477
  24 H     1.0000    0     1.008  -12.138683    2.202606   -1.100783
  25 H     1.0000    0     1.008  -12.040442   -0.988639   -2.184298
  26 H     1.0000    0     1.008   -9.071026    0.954771    5.262203
  27 H     1.0000    0     1.008  -12.361654    1.053653    4.575202
  28 H     1.0000    0     1.008  -10.293262    3.357157    3.241905
  29 H     1.0000    0     1.008   -8.943433   -3.694813    3.699351
  30 H     1.0000    0     1.008  -12.237131   -3.519670    3.040862
  31 H     1.0000    0     1.008  -10.082795   -4.448721    0.620419
  32 H     1.0000    0     1.008   -8.595853    1.347918   -3.374275
  33 H     1.0000    0     1.008   -4.308905    2.002193   -4.993654
  34 H     1.0000    0     1.008   -1.234289   -0.440190    2.162691
  35 H     1.0000    0     1.008   -5.487506   -1.091661    3.774983
  36 H     1.0000    0     1.008    2.063324    2.393577   -5.343483
  37 H     1.0000    0     1.008    2.272054   -0.282842    0.451430
  38 H     1.0000    0     1.008    5.568244   -1.241154    2.115253
  39 H     1.0000    0     1.008    9.691688   -2.293812    4.019206
  40 H     1.0000    0     1.008   17.839270   -1.734010    2.258556
  41 H     1.0000    0     1.008   16.580604   -2.085930   -0.870817
  42 H     1.0000    0     1.008   16.686424    0.982044    0.586018
  43 H     1.0000    0     1.008   13.514815    0.711018   -2.548196
  44 H     1.0000    0     1.008    9.379933    1.757823   -4.445999

--------------------------------
INTERNAL COORDINATES (ANGSTROEM)
--------------------------------
 C      0   0   0     0.000000000000     0.00000000     0.00000000
 C      1   0   0     1.539827017036     0.00000000     0.00000000
 C      2   1   0     1.547494393062   108.32252607     0.00000000
 C      2   1   3     1.547442930816   108.32380625   118.59671689
 C      2   1   3     1.539721707196   112.25733399   239.31257266
 C      5   2   1     1.405523264216   123.00525437     0.90792869
 C      6   5   2     1.396884783226   121.54720552   180.05437645
 C      7   6   5     1.405647586614   121.09478317     0.22167811
 C      8   7   6     1.409648853560   117.76926951   359.59039694
 C      9   8   7     1.391747953000   120.75729722     0.25695190
 C      8   7   6     1.479057304639   119.63780405   179.55341126
 O     11   8   7     1.322724906314   115.16887244     5.71867714
 C     11   8   7     1.387024259868   124.40514727   186.17418321
 C     13  11   8     1.440680076952   120.09610843   179.61130818
 O     14  13  11     1.263619870924   120.41783059     0.24186954
 C     14  13  11     1.488701587248   120.92865880   180.31789940
 C     16  14  13     1.412432540645   123.58610579     0.79359268
 C     17  16  14     1.388398101997   121.01363246   179.92562899
 C     18  17  16     1.410216908357   120.46373683     0.00000000
 O     19  18  17     1.348445330416   116.23686621   179.98421279
 C     20  19  18     1.422032349010   119.68257916   179.95036917
 C     19  18  17     1.407956646345   119.28318389   359.97559811
 C     22  19  18     1.393931188133   119.54490686     0.00000000
 H      1   2   3     1.101534190394   109.49569801   300.44422457
 H      1   2   3     1.101608229273   111.91884918    59.63973691
 H      1   2   3     1.101695084554   111.90204027   181.21525631
 H      3   2   1     1.101038912813   111.93590592   177.27170678
 H      3   2   1     1.102601919358   110.09197542    57.48708006
 H      3   2   1     1.102275610529   110.94768857   297.99705327
 H      4   2   1     1.100944253931   111.91006265   182.66883369
 H      4   2   1     1.102579666773   110.09640422   302.47412699
 H      4   2   1     1.102283107032   110.93509981    61.96708588
 H      6   5   2     1.090277650863   120.37581830     0.00000000
 H      7   6   5     1.091002583753   119.63876979   179.94011247
 H      9   8   7     1.091534909446   120.55996048   180.73647294
 H     10   9   8     1.092480931830   118.18076985   180.13861984
 H     12  11   8     1.025390724634   104.93123783   180.32907171
 H     13  11   8     1.085294901865   119.46414074     0.23525067
 H     17  16  14     1.091078303319   120.77236401     0.00000000
 H     18  17  16     1.092428649779   121.00771313   180.03200025
 H     21  20  19     1.097739592233   106.29218002   179.91850040
 H     21  20  19     1.103144033922   111.38300309   298.82611001
 H     21  20  19     1.103100595932   111.39053386    60.98325592
 H     22  19  18     1.090331680661   121.01314900   179.97702950
 H     23  22  19     1.091572144682   119.68485751   180.04521979

---------------------------
INTERNAL COORDINATES (A.U.)
---------------------------
 C      0   0   0     0.000000000000     0.00000000     0.00000000
 C      1   0   0     2.909851355811     0.00000000     0.00000000
 C      2   1   0     2.924340596665   108.32252607     0.00000000
 C      2   1   3     2.924243347114   108.32380625   118.59671689
 C      2   1   3     2.909652349053   112.25733399   239.31257266
 C      5   2   1     2.656054044224   123.00525437     0.90792869
 C      6   5   2     2.639729680938   121.54720552   180.05437645
 C      7   6   5     2.656288979507   121.09478317     0.22167811
 C      8   7   6     2.663850278224   117.76926951   359.59039694
 C      9   8   7     2.630022478615   120.75729722     0.25695190
 C      8   7   6     2.795013242143   119.63780405   179.55341126
 O     11   8   7     2.499587823451   115.16887244     5.71867714
 C     11   8   7     2.621095992255   124.40514727   186.17418321
 C     13  11   8     2.722490792036   120.09610843   179.61130818
 O     14  13  11     2.387895493427   120.41783059     0.24186954
 C     14  13  11     2.813238295033   120.92865880   180.31789940
 C     16  14  13     2.669110684458   123.58610579     0.79359268
 C     17  16  14     2.623692177630   121.01363246   179.92562899
 C     18  17  16     2.664923746220   120.46373683     0.00000000
 O     19  18  17     2.548192381052   116.23686621   179.98421279
 C     20  19  18     2.687251693205   119.68257916   179.95036917
 C     19  18  17     2.660652470026   119.28318389   359.97559811
 C     22  19  18     2.634148195102   119.54490686     0.00000000
 H      1   2   3     2.081597946996   109.49569801   300.44422457
 H      1   2   3     2.081737860201   111.91884918    59.63973691
 H      1   2   3     2.081901992894   111.90204027   181.21525631
 H      3   2   1     2.080662008007   111.93590592   177.27170678
 H      3   2   1     2.083615662322   110.09197542    57.48708006
 H      3   2   1     2.082999028000   110.94768857   297.99705327
 H      4   2   1     2.080483128645   111.91006265   182.66883369
 H      4   2   1     2.083573611031   110.09640422   302.47412699
 H      4   2   1     2.083013194339   110.93509981    61.96708588
 H      6   5   2     2.060326170065   120.37581830     0.00000000
 H      7   6   5     2.061696094694   119.63876979   179.94011247
 H      9   8   7     2.062702044468   120.55996048   180.73647294
 H     10   9   8     2.064489767690   118.18076985   180.13861984
 H     12  11   8     1.937707649821   104.93123783   180.32907171
 H     13  11   8     2.050910139066   119.46414074     0.23525067
 H     17  16  14     2.061839183936   120.77236401     0.00000000
 H     18  17  16     2.064390968932   121.00771313   180.03200025
 H     21  20  19     2.074427195683   106.29218002   179.91850040
 H     21  20  19     2.084640110381   111.38300309   298.82611001
 H     21  20  19     2.084558024477   111.39053386    60.98325592
 H     22  19  18     2.060428271587   121.01314900   179.97702950
 H     23  22  19     2.062772408865   119.68485751   180.04521979

---------------------
BASIS SET INFORMATION
---------------------
There are 3 groups of distinct atoms

 Group   1 Type C   : 7s4p1d contracted to 3s2p1d pattern {511/31/1}
 Group   2 Type O   : 7s4p1d contracted to 3s2p1d pattern {511/31/1}
 Group   3 Type H   : 4s1p contracted to 2s1p pattern {31/1}

Atom   0C    basis set group =>   1
Atom   1C    basis set group =>   1
Atom   2C    basis set group =>   1
Atom   3C    basis set group =>   1
Atom   4C    basis set group =>   1
Atom   5C    basis set group =>   1
Atom   6C    basis set group =>   1
Atom   7C    basis set group =>   1
Atom   8C    basis set group =>   1
Atom   9C    basis set group =>   1
Atom  10C    basis set group =>   1
Atom  11O    basis set group =>   2
Atom  12C    basis set group =>   1
Atom  13C    basis set group =>   1
Atom  14O    basis set group =>   2
Atom  15C    basis set group =>   1
Atom  16C    basis set group =>   1
Atom  17C    basis set group =>   1
Atom  18C    basis set group =>   1
Atom  19O    basis set group =>   2
Atom  20C    basis set group =>   1
Atom  21C    basis set group =>   1
Atom  22C    basis set group =>   1
Atom  23H    basis set group =>   3
Atom  24H    basis set group =>   3
Atom  25H    basis set group =>   3
Atom  26H    basis set group =>   3
Atom  27H    basis set group =>   3
Atom  28H    basis set group =>   3
Atom  29H    basis set group =>   3
Atom  30H    basis set group =>   3
Atom  31H    basis set group =>   3
Atom  32H    basis set group =>   3
Atom  33H    basis set group =>   3
Atom  34H    basis set group =>   3
Atom  35H    basis set group =>   3
Atom  36H    basis set group =>   3
Atom  37H    basis set group =>   3
Atom  38H    basis set group =>   3
Atom  39H    basis set group =>   3
Atom  40H    basis set group =>   3
Atom  41H    basis set group =>   3
Atom  42H    basis set group =>   3
Atom  43H    basis set group =>   3
Atom  44H    basis set group =>   3
---------------------------------
AUXILIARY/J BASIS SET INFORMATION
---------------------------------
There are 3 groups of distinct atoms

 Group   1 Type C   : 12s5p4d2f1g contracted to 6s4p3d1f1g pattern {711111/2111/211/2/1}
 Group   2 Type O   : 12s5p4d2f1g contracted to 6s4p3d1f1g pattern {711111/2111/211/2/1}
 Group   3 Type H   : 5s2p1d contracted to 3s1p1d pattern {311/2/1}

Atom   0C    basis set group =>   1
Atom   1C    basis set group =>   1
Atom   2C    basis set group =>   1
Atom   3C    basis set group =>   1
Atom   4C    basis set group =>   1
Atom   5C    basis set group =>   1
Atom   6C    basis set group =>   1
Atom   7C    basis set group =>   1
Atom   8C    basis set group =>   1
Atom   9C    basis set group =>   1
Atom  10C    basis set group =>   1
Atom  11O    basis set group =>   2
Atom  12C    basis set group =>   1
Atom  13C    basis set group =>   1
Atom  14O    basis set group =>   2
Atom  15C    basis set group =>   1
Atom  16C    basis set group =>   1
Atom  17C    basis set group =>   1
Atom  18C    basis set group =>   1
Atom  19O    basis set group =>   2
Atom  20C    basis set group =>   1
Atom  21C    basis set group =>   1
Atom  22C    basis set group =>   1
Atom  23H    basis set group =>   3
Atom  24H    basis set group =>   3
Atom  25H    basis set group =>   3
Atom  26H    basis set group =>   3
Atom  27H    basis set group =>   3
Atom  28H    basis set group =>   3
Atom  29H    basis set group =>   3
Atom  30H    basis set group =>   3
Atom  31H    basis set group =>   3
Atom  32H    basis set group =>   3
Atom  33H    basis set group =>   3
Atom  34H    basis set group =>   3
Atom  35H    basis set group =>   3
Atom  36H    basis set group =>   3
Atom  37H    basis set group =>   3
Atom  38H    basis set group =>   3
Atom  39H    basis set group =>   3
Atom  40H    basis set group =>   3
Atom  41H    basis set group =>   3
Atom  42H    basis set group =>   3
Atom  43H    basis set group =>   3
Atom  44H    basis set group =>   3


           ************************************************************
           *        Program running with 4 parallel MPI-processes     *
           *              working on a common directory               *
           ************************************************************
------------------------------------------------------------------------------
                             ORCA STARTUP CALCULATIONS
                           -- RI-GTO INTEGRALS CHOSEN --
------------------------------------------------------------------------------
------------------------------------------------------------------------------
                   ___                                                        
                  /   \      - P O W E R E D   B Y -                         
                 /     \                                                     
                 |  |  |   _    _      __       _____    __    __             
                 |  |  |  | |  | |    /  \     |  _  \  |  |  /  |          
                  \  \/   | |  | |   /    \    | | | |  |  | /  /          
                 / \  \   | |__| |  /  /\  \   | |_| |  |  |/  /          
                |  |  |   |  __  | /  /__\  \  |    /   |      \           
                |  |  |   | |  | | |   __   |  |    \   |  |\   \          
                \     /   | |  | | |  |  |  |  | |\  \  |  | \   \       
                 \___/    |_|  |_| |__|  |__|  |_| \__\ |__|  \__/        
                                                                              
                      - O R C A' S   B I G   F R I E N D -                    
                                      &                                       
                       - I N T E G R A L  F E E D E R -                       
                                                                              
 v1 FN, 2020, v2 2021, v3 2022-2024                                           
------------------------------------------------------------------------------


----------------------
SHARK INTEGRAL PACKAGE
----------------------

Number of atoms                             ...     45
Number of basis functions                   ...    432
Number of shells                            ...    204
Maximum angular momentum                    ...      2
Integral batch strategy                     ... SHARK/LIBINT Hybrid
RI-J (if used) integral strategy            ... SPLIT-RIJ (Revised 2003 algorithm where possible)
Printlevel                                  ...      1
Contraction scheme used                     ... SEGMENTED contraction
Prescreening option                         ... SCHWARTZ
   Thresh                                   ... 2.500e-11
   Tcut                                     ... 2.500e-12
   Tpresel                                  ... 2.500e-12 
Coulomb Range Separation                    ... NOT USED
Exchange Range Separation                   ... Long Range
   Mu parameter                             ... 3.300e-01
   Scaling (regular/separated)              ... 1.900e-01 4.600e-01
Robust (split-)RI terms used:
  metric    (central integrals)             ... YES
  density   (r.h.s.  integrals)             ... YES
  potential (l.h.s.  integrals)             ... YES
Multipole approximations                    ... NOT USED
Finite Nucleus Model                        ... NOT USED
CABS basis                                  ... NOT available
Auxiliary Coulomb fitting basis             ... AVAILABLE
   # of basis functions in Aux-J            ...   1369
   # of shells in Aux-J                     ...    455
   Maximum angular momentum in Aux-J        ...      4
Auxiliary J/K fitting basis                 ... NOT available
Auxiliary Correlation fitting basis         ... NOT available
Auxiliary 'external' fitting basis          ... NOT available

Checking pre-screening integrals            ... done (  0.0 sec) Dimension = 204
   => SHARK Basis and OBASIS are compatible. Storing Pre-screening
Shell pair information
Shell pair cut-off parameter TPreSel        ...   2.5e-12
Total number of shell pairs                 ...     20910
Shell pairs after pre-screening             ...     12199
Total number of primitive shell pairs       ...     75056
Primitive shell pairs kept                  ...     28783
          la=0 lb=0:   3857 shell pairs
          la=1 lb=0:   4557 shell pairs
          la=1 lb=1:   1397 shell pairs
          la=2 lb=0:   1410 shell pairs
          la=2 lb=1:    843 shell pairs
          la=2 lb=2:    135 shell pairs

Checking whether 4 symmetric matrices of dimension 432 fit in memory
:Max Core in MB      =   2500.00
 MB in use           =     15.41
 MB left             =   2484.59
 MB needed           =      2.85
 Data fit in memory  = YES
Calculating RI/J V-Matrix + Cholesky decomp.... done (  0.2 sec)
Calculating Nuclear repulsion               ... done (  0.0 sec) ENN=   1726.234492521343 Eh

Diagonalization of the overlap matrix:
Smallest eigenvalue                        ... 2.690e-04
Time for diagonalization                   ...    0.057 sec
Threshold for overlap eigenvalues          ... 1.000e-07
Number of eigenvalues below threshold      ... 0
Time for construction of square roots      ...    0.027 sec
Total time needed                          ...    0.091 sec

-------------------
DFT GRID GENERATION
-------------------

General Integration Accuracy     IntAcc      ... 4.388
Radial Grid Type                 RadialGrid  ... OptM3 with GC (2021)
Angular Grid (max. ang.)         AngularGrid ... 4 (Lebedev-302)
Angular grid pruning method      GridPruning ... 4 (adaptive)
Weight generation scheme         WeightScheme... mBecke (2022)
Basis function cutoff            BFCut       ... 1.0000e-11
Integration weight cutoff        WCut        ... 1.0000e-14
Partially contracted basis set               ... off
Rotationally invariant grid construction     ... off
Angular grids for H and He will be reduced by one unit

Total number of grid points                  ...   207660
Total number of batches                      ...     3270
Average number of points per batch           ...       63
Average number of grid points per atom       ...     4615

--------------------
COSX GRID GENERATION
--------------------

GRIDX 1
-------
General Integration Accuracy     IntAcc      ... 3.816
Radial Grid Type                 RadialGrid  ... OptM3 with GC (2021)
Angular Grid (max. ang.)         AngularGrid ... 1 (Lebedev-50)
Angular grid pruning method      GridPruning ... 4 (adaptive)
Weight generation scheme         WeightScheme... mBecke (2022)
Basis function cutoff            BFCut       ... 1.0000e-11
Integration weight cutoff        WCut        ... 1.0000e-14
Partially contracted basis set               ... on
Rotationally invariant grid construction     ... off
Angular grids for H and He will be reduced by one unit

Total number of grid points                  ...    26489
Total number of batches                      ...      234
Average number of points per batch           ...      113
Average number of grid points per atom       ...      589
UseSFitting                                  ... on

GRIDX 2
-------
General Integration Accuracy     IntAcc      ... 4.020
Radial Grid Type                 RadialGrid  ... OptM3 with GC (2021)
Angular Grid (max. ang.)         AngularGrid ... 2 (Lebedev-110)
Angular grid pruning method      GridPruning ... 4 (adaptive)
Weight generation scheme         WeightScheme... mBecke (2022)
Basis function cutoff            BFCut       ... 1.0000e-11
Integration weight cutoff        WCut        ... 1.0000e-14
Partially contracted basis set               ... on
Rotationally invariant grid construction     ... off
Angular grids for H and He will be reduced by one unit

Total number of grid points                  ...    56824
Total number of batches                      ...      467
Average number of points per batch           ...      121
Average number of grid points per atom       ...     1263
UseSFitting                                  ... on

GRIDX 3
-------
General Integration Accuracy     IntAcc      ... 4.338
Radial Grid Type                 RadialGrid  ... OptM3 with GC (2021)
Angular Grid (max. ang.)         AngularGrid ... 3 (Lebedev-194)
Angular grid pruning method      GridPruning ... 4 (adaptive)
Weight generation scheme         WeightScheme... mBecke (2022)
Basis function cutoff            BFCut       ... 1.0000e-11
Integration weight cutoff        WCut        ... 1.0000e-14
Partially contracted basis set               ... on
Rotationally invariant grid construction     ... off
Angular grids for H and He will be reduced by one unit

Total number of grid points                  ...   124093
Total number of batches                      ...      985
Average number of points per batch           ...      125
Average number of grid points per atom       ...     2758
UseSFitting                                  ... on
Grids setup in   8.1 sec
Initializing property integral containers    ... done (  0.2 sec)

SHARK setup successfully completed in   9.0 seconds

Maximum memory used throughout the entire STARTUP-calculation: 57.8 MB


           ************************************************************
           *        Program running with 4 parallel MPI-processes     *
           *              working on a common directory               *
           ************************************************************
-------------------------------------------------------------------------------
                                 ORCA GUESS
                   Start orbitals & Density for SCF / CASSCF
-------------------------------------------------------------------------------

------------
SCF SETTINGS
------------
Hamiltonian:
 Density Functional     Method          .... DFT(GTOs)
 Exchange Functional    Exchange        .... WB88
 Correlation Functional Correlation     .... LYP
 LDA part of GGA corr.  LDAOpt          .... VWN-5
 Gradients option       PostSCFGGA      .... off
 Hybrid DFT is turned on
   Fraction HF Exchange ScalHFX         ....  0.190000
   Scaling of DF-GGA-X  ScalDFX         ....  0.350000
   Scaling of DF-GGA-C  ScalDFC         ....  0.810000
   Scaling of DF-LDA-C  ScalLDAC        ....  1.000000
   Perturbative correction              ....  0.000000
 Long-range corrected/Screened/Range-Separated Hybrid DFT is turned on
   Amount of maximum screened exact exchange              ....  0.460000
   Range separation parameter mu (erf(mu*r12)/r12)        ....  0.330000
 RI-approximation to the Coulomb term is turned on
   Number of AuxJ basis functions       .... 1369
   RIJ-COSX (HFX calculated with COS-X)).... on


General Settings:
 Integral files         IntName         .... td
 Hartree-Fock type      HFTyp           .... RHF
 Total Charge           Charge          ....    0
 Multiplicity           Mult            ....    1
 Number of Electrons    NEL             ....  166
 Basis Dimension        Dim             ....  432
 Nuclear Repulsion      ENuc            ....   1726.2344925213 Eh

Convergence Acceleration:
 AO-DIIS                CNVDIIS         .... on
   Start iteration      DIISMaxIt       ....    12
   Startup error        DIISStart       ....  0.200000
   # of expansion vecs  DIISMaxEq       ....     5
   Bias factor          DIISBfac        ....   1.050
   Max. coefficient     DIISMaxC        ....  10.000
 MO-DIIS                CNVKDIIS        .... off
 Trust-Rad. Augm. Hess. CNVTRAH         .... auto
   Auto Start mean grad. ratio tolernc. ....  1.125000
   Auto Start start iteration           ....    50
   Auto Start num. interpolation iter.  ....    10
   Max. Number of Micro iterations      ....    24
   Max. Number of Macro iterations      .... Maxiter - #DIIS iter
   Number of Davidson start vectors     ....     2
   Converg. threshold    (grad. norm)   ....   1.000e-05
   Grad. Scal. Fac. for Micro threshold ....   0.100
   Minimum threshold for Micro iter.    ....   1.000e-02
   NR start threshold (gradient norm)   ....   1.000e-04
   Initial trust radius                 ....   0.400
   Minimum AH scaling param. (alpha)    ....   1.000
   Maximum AH scaling param. (alpha)    .... 1000.000
   Quad. conv. algorithm                .... NR
   White noise on init. David. guess    .... on
   Maximum white noise                  ....   0.010
   Pseudo random numbers                .... off
   Inactive MOs                         .... canonical
   Orbital update algorithm             .... Taylor
   Preconditioner                       .... Diag
   Full preconditioner red. dimension   ....   250
 SOSCF                 CNVSOSCF           .... on
   Start iteration     SOSCFMaxIt         ....   150
   Startup grad/error  SOSCFStart         ....  0.003300
   Hessian update      SOSCFHessUp        .... L-BFGS
   Autom. constraints  SOSCFAutoConstrain .... off
 Level Shifting         CNVShift        .... on
   Level shift para.    LevelShift      ....    0.2500
   Turn off err/grad.   ShiftErr        ....    0.0010
 Zerner damping         CNVZerner       .... off
 Static damping         CNVDamp         .... on
   Fraction old density DampFac         ....    0.7000
   Max. Damping (<1)    DampMax         ....    0.9800
   Min. Damping (>=0)   DampMin         ....    0.0000
   Turn off err/grad.   DampErr         ....    0.1000

SCF Procedure:
 Maximum # iterations   MaxIter         ....   300
 SCF integral mode      SCFMode         .... Direct
   Integral package                     .... SHARK and LIBINT hybrid scheme
 Reset frequency        DirectResetFreq ....    20
 Integral Threshold     Thresh          ....  2.500e-11 Eh
 Primitive CutOff       TCut            ....  2.500e-12 Eh

Convergence Tolerance:
 Convergence Check Mode ConvCheckMode   .... Total+1el-Energy
 Convergence forced     ConvForced      .... 1
 Energy Change          TolE            ....  1.000e-08 Eh
 1-El. energy change                    ....  1.000e-05 Eh
 Orbital Gradient       TolG            ....  1.000e-05
 Orbital Rotation angle TolX            ....  1.000e-05
 DIIS Error             TolErr          ....  5.000e-07

------------------------------
INITIAL GUESS: MODEL POTENTIAL
------------------------------
Loading Hartree-Fock densities                     ... done
Calculating cut-offs                               ... done
Initializing the effective Hamiltonian             ... done
Setting up the integral package (SHARK)            ... done
Starting the Coulomb interaction                   ... done (   1.3 sec)
Making the grid                                    ... done (   1.6 sec)
Mapping shells                                     ... done
Starting the XC term evaluation                    ... done (   0.9 sec)
  promolecular density results
     # of electrons  =    165.989784060
     EX              =   -133.219607774
     EC              =     -5.542085483
     EX+EC           =   -138.761693258
Transforming the Hamiltonian                       ... done (   0.0 sec)
Diagonalizing the Hamiltonian                      ... done (   0.1 sec)
Back transforming the eigenvectors                 ... done (   0.0 sec)
Now organizing SCF variables                       ... done
                      ------------------
                      INITIAL GUESS DONE (   4.1 sec)
                      ------------------
             **** ENERGY FILE WAS UPDATED (td.en.tmp) ****
Finished Guess after   5.1 sec
Maximum memory used throughout the entire GUESS-calculation: 21.7 MB


           ************************************************************
           *        Program running with 4 parallel MPI-processes     *
           *              working on a common directory               *
           ************************************************************

-------------------------------------------------------------------------------------------
                                      ORCA LEAN-SCF
                              memory conserving SCF solver
-------------------------------------------------------------------------------------------

----------------------------------------D-I-I-S--------------------------------------------
Iteration    Energy (Eh)           Delta-E    RMSDP     MaxDP     DIISErr   Damp  Time(sec)
-------------------------------------------------------------------------------------------
               ***  Starting incremental Fock matrix formation  ***
    1    -999.3711968222969517     0.00e+00  3.55e-03  6.68e-02  2.09e-01  0.700  28.9
    2    -999.5546358471547137    -1.83e-01  2.60e-03  4.30e-02  9.49e-02  0.700  11.6
                               ***Turning on AO-DIIS***
    3    -999.6435572164787118    -8.89e-02  1.26e-03  1.77e-02  4.16e-02  0.700  16.8
    4    -999.6962369956813745    -5.27e-02  2.51e-03  2.91e-02  2.50e-02  0.000  15.0
    5    -999.8091648897398045    -1.13e-01  2.59e-04  5.94e-03  4.14e-03  0.000  13.1
    6    -999.8094799604455147    -3.15e-04  1.21e-04  2.61e-03  3.60e-03  0.000   8.8
                              *** Initializing SOSCF ***
---------------------------------------S-O-S-C-F--------------------------------------
Iteration    Energy (Eh)           Delta-E    RMSDP     MaxDP     MaxGrad    Time(sec)
--------------------------------------------------------------------------------------
    7    -999.8095399731837460    -6.00e-05  5.43e-05  1.23e-03  7.76e-04     9.5
               *** Restarting incremental Fock matrix formation ***
    8    -999.8093955187123356     1.44e-04  5.87e-05  1.00e-03  5.70e-04    24.2
    9    -999.8094024344336503    -6.92e-06  4.34e-05  1.05e-03  1.94e-04    14.9
   10    -999.8094029081744338    -4.74e-07  2.01e-05  4.94e-04  1.45e-04    13.5
   11    -999.8094040177657007    -1.11e-06  6.72e-06  1.35e-04  2.60e-05    13.2
   12    -999.8094040408714136    -2.31e-08  3.25e-06  6.73e-05  2.00e-05    10.5
   13    -999.8094040840314847    -4.32e-08  6.92e-07  1.60e-05  3.99e-06     9.9
   14    -999.8094040930000119    -8.97e-09  3.79e-07  6.87e-06  5.29e-06     7.9
                 **** Energy Check signals convergence ****

               *****************************************************
               *                     SUCCESS                       *
               *           SCF CONVERGED AFTER  14 CYCLES          *
               *****************************************************

Recomputing exchange energy using gridx3       ... done (   41.712 sec)
Old exchange energy                            :    -38.784021518 Eh
New exchange energy                            :    -38.784054285 Eh
Exchange energy change after final integration :     -0.000032767 Eh
Total energy after final integration           :   -999.809436861 Eh
             **** ENERGY FILE WAS UPDATED (td.en.tmp) ****

----------------
TOTAL SCF ENERGY
----------------

Total Energy       :       -999.80943686111198 Eh          -27206.19791 eV

Components:
Nuclear Repulsion  :       1726.23449252134287 Eh           46973.22861 eV
Electronic Energy  :      -2726.04389661500136 Eh          -74179.42564 eV
One Electron Energy:      -4785.20384939330779 Eh         -130212.01659 eV
Two Electron Energy:       2059.15995277830643 Eh           56032.59096 eV

Virial components:
Potential Energy   :      -1988.78305550299183 Eh          -54117.53822 eV
Kinetic Energy     :        988.97361864187974 Eh           26911.34031 eV
Virial Ratio       :          2.01095663020224

DFT components:
N(Alpha)           :       83.000064656075 electrons
N(Beta)            :       83.000064656075 electrons
N(Total)           :      166.000129312151 electrons
E(XC)              :     -102.999370619080 Eh       

---------------
SCF CONVERGENCE
---------------

  Last Energy change         ...    8.9685e-09  Tolerance :   1.0000e-08
  Last MAX-Density change    ...    6.8656e-06  Tolerance :   1.0000e-07
  Last RMS-Density change    ...    3.7856e-07  Tolerance :   5.0000e-09
  Last DIIS Error            ...    7.7567e-04  Tolerance :   5.0000e-07
  Last Orbital Gradient      ...    5.2886e-06  Tolerance :   1.0000e-05
  Last Orbital Rotation      ...    1.1696e-05  Tolerance :   1.0000e-05


----------------
ORBITAL ENERGIES
----------------

  NO   OCC          E(Eh)            E(eV) 
   0   2.0000     -19.246653      -523.7281 
   1   2.0000     -19.223691      -523.1032 
   2   2.0000     -19.187093      -522.1073 
   3   2.0000     -10.347312      -281.5647 
   4   2.0000     -10.344826      -281.4970 
   5   2.0000     -10.336121      -281.2602 
   6   2.0000     -10.327414      -281.0232 
   7   2.0000     -10.282589      -279.8035 
   8   2.0000     -10.277857      -279.6747 
   9   2.0000     -10.277852      -279.6746 
  10   2.0000     -10.276209      -279.6299 
  11   2.0000     -10.275453      -279.6093 
  12   2.0000     -10.271916      -279.5130 
  13   2.0000     -10.269253      -279.4406 
  14   2.0000     -10.268719      -279.4261 
  15   2.0000     -10.268478      -279.4195 
  16   2.0000     -10.266295      -279.3601 
  17   2.0000     -10.265945      -279.3506 
  18   2.0000     -10.265934      -279.3503 
  19   2.0000     -10.256532      -279.0944 
  20   2.0000     -10.256495      -279.0934 
  21   2.0000     -10.255680      -279.0712 
  22   2.0000     -10.246737      -278.8279 
  23   2.0000      -1.149074       -31.2679 
  24   2.0000      -1.138180       -30.9715 
  25   2.0000      -1.085550       -29.5393 
  26   2.0000      -0.945877       -25.7386 
  27   2.0000      -0.936354       -25.4795 
  28   2.0000      -0.901398       -24.5283 
  29   2.0000      -0.858703       -23.3665 
  30   2.0000      -0.842032       -22.9129 
  31   2.0000      -0.830559       -22.6007 
  32   2.0000      -0.825409       -22.4605 
  33   2.0000      -0.808691       -22.0056 
  34   2.0000      -0.782200       -21.2847 
  35   2.0000      -0.762390       -20.7457 
  36   2.0000      -0.760666       -20.6988 
  37   2.0000      -0.728493       -19.8233 
  38   2.0000      -0.697543       -18.9811 
  39   2.0000      -0.686409       -18.6781 
  40   2.0000      -0.676699       -18.4139 
  41   2.0000      -0.655991       -17.8504 
  42   2.0000      -0.635799       -17.3010 
  43   2.0000      -0.624903       -17.0045 
  44   2.0000      -0.613726       -16.7003 
  45   2.0000      -0.588691       -16.0191 
  46   2.0000      -0.572018       -15.5654 
  47   2.0000      -0.556844       -15.1525 
  48   2.0000      -0.550973       -14.9928 
  49   2.0000      -0.547949       -14.9105 
  50   2.0000      -0.531489       -14.4626 
  51   2.0000      -0.527024       -14.3411 
  52   2.0000      -0.519410       -14.1339 
  53   2.0000      -0.514423       -13.9982 
  54   2.0000      -0.512737       -13.9523 
  55   2.0000      -0.499935       -13.6039 
  56   2.0000      -0.499465       -13.5911 
  57   2.0000      -0.497201       -13.5295 
  58   2.0000      -0.494653       -13.4602 
  59   2.0000      -0.489049       -13.3077 
  60   2.0000      -0.483171       -13.1478 
  61   2.0000      -0.469274       -12.7696 
  62   2.0000      -0.462859       -12.5950 
  63   2.0000      -0.459105       -12.4929 
  64   2.0000      -0.452996       -12.3266 
  65   2.0000      -0.444370       -12.0919 
  66   2.0000      -0.444017       -12.0823 
  67   2.0000      -0.435812       -11.8590 
  68   2.0000      -0.433524       -11.7968 
  69   2.0000      -0.427486       -11.6325 
  70   2.0000      -0.425416       -11.5762 
  71   2.0000      -0.413893       -11.2626 
  72   2.0000      -0.399408       -10.8685 
  73   2.0000      -0.394597       -10.7375 
  74   2.0000      -0.392542       -10.6816 
  75   2.0000      -0.389502       -10.5989 
  76   2.0000      -0.384524       -10.4634 
  77   2.0000      -0.324616        -8.8333 
  78   2.0000      -0.322293        -8.7700 
  79   2.0000      -0.319447        -8.6926 
  80   2.0000      -0.313981        -8.5439 
  81   2.0000      -0.288989        -7.8638 
  82   2.0000      -0.270880        -7.3710 
  83   0.0000      -0.031457        -0.8560 
  84   0.0000       0.021666         0.5896 
  85   0.0000       0.033094         0.9005 
  86   0.0000       0.033445         0.9101 
  87   0.0000       0.087498         2.3809 
  88   0.0000       0.088789         2.4161 
  89   0.0000       0.098070         2.6686 
  90   0.0000       0.103150         2.8069 
  91   0.0000       0.127339         3.4651 
  92   0.0000       0.134546         3.6612 
  93   0.0000       0.139098         3.7851 
*Only the first 10 virtual orbitals were printed.

                    ********************************
                    * MULLIKEN POPULATION ANALYSIS *
                    ********************************

-----------------------
MULLIKEN ATOMIC CHARGES
-----------------------
   0 C :    0.073521
   1 C :   -0.259147
   2 C :    0.064523
   3 C :    0.062878
   4 C :    0.097958
   5 C :   -0.029242
   6 C :   -0.003136
   7 C :    0.037423
   8 C :   -0.008872
   9 C :   -0.039355
  10 C :    0.193957
  11 O :   -0.186548
  12 C :   -0.210776
  13 C :    0.217320
  14 O :   -0.320055
  15 C :    0.008751
  16 C :    0.003049
  17 C :   -0.022833
  18 C :    0.227919
  19 O :   -0.304733
  20 C :    0.162164
  21 C :   -0.086884
  22 C :   -0.001724
  23 H :    0.009111
  24 H :    0.016491
  25 H :    0.016295
  26 H :    0.009003
  27 H :    0.009360
  28 H :    0.017577
  29 H :    0.009089
  30 H :    0.009557
  31 H :    0.017728
  32 H :   -0.017885
  33 H :    0.003331
  34 H :   -0.020978
  35 H :   -0.017379
  36 H :    0.213166
  37 H :   -0.020415
  38 H :   -0.016557
  39 H :   -0.011239
  40 H :    0.044156
  41 H :    0.031543
  42 H :    0.031641
  43 H :   -0.018007
  44 H :    0.008257
Sum of atomic charges:    0.0000000

--------------------------------
MULLIKEN REDUCED ORBITAL CHARGES
--------------------------------
  0 C s       :     2.954590  s :     2.954590
      pz      :     0.981958  p :     2.943450
      px      :     0.970033
      py      :     0.991459
      dz2     :     0.004451  d :     0.028440
      dxz     :     0.006481
      dyz     :     0.006972
      dx2y2   :     0.008829
      dxy     :     0.001708

  1 C s       :     3.198788  s :     3.198788
      pz      :     1.035261  p :     3.009890
      px      :     0.964467
      py      :     1.010162
      dz2     :     0.008326  d :     0.050469
      dxz     :     0.011226
      dyz     :     0.010651
      dx2y2   :     0.013125
      dxy     :     0.007140

  2 C s       :     2.982067  s :     2.982067
      pz      :     0.953942  p :     2.924904
      px      :     0.993073
      py      :     0.977890
      dz2     :     0.004624  d :     0.028507
      dxz     :     0.008430
      dyz     :     0.005202
      dx2y2   :     0.008951
      dxy     :     0.001300

  3 C s       :     2.982982  s :     2.982982
      pz      :     0.990393  p :     2.925639
      px      :     0.993802
      py      :     0.941445
      dz2     :     0.002955  d :     0.028501
      dxz     :     0.006763
      dyz     :     0.007808
      dx2y2   :     0.007913
      dxy     :     0.003061

  4 C s       :     3.067023  s :     3.067023
      pz      :     0.927735  p :     2.794210
      px      :     0.934207
      py      :     0.932268
      dz2     :     0.009607  d :     0.040809
      dxz     :     0.012446
      dyz     :     0.006055
      dx2y2   :     0.006431
      dxy     :     0.006269

  5 C s       :     3.224087  s :     3.224087
      pz      :     0.937723  p :     2.771150
      px      :     0.838541
      py      :     0.994887
      dz2     :     0.007909  d :     0.034005
      dxz     :     0.011755
      dyz     :     0.004599
      dx2y2   :     0.005047
      dxy     :     0.004695

  6 C s       :     3.248075  s :     3.248075
      pz      :     0.856517  p :     2.720640
      px      :     0.932626
      py      :     0.931497
      dz2     :     0.007722  d :     0.034421
      dxz     :     0.010423
      dyz     :     0.003170
      dx2y2   :     0.005970
      dxy     :     0.007137

  7 C s       :     3.091462  s :     3.091462
      pz      :     0.911915  p :     2.832207
      px      :     0.903822
      py      :     1.016470
      dz2     :     0.009495  d :     0.038908
      dxz     :     0.011709
      dyz     :     0.005800
      dx2y2   :     0.006374
      dxy     :     0.005530

  8 C s       :     3.203761  s :     3.203761
      pz      :     0.938972  p :     2.770303
      px      :     0.862610
      py      :     0.968721
      dz2     :     0.008119  d :     0.034808
      dxz     :     0.011619
      dyz     :     0.004925
      dx2y2   :     0.005058
      dxy     :     0.005086

  9 C s       :     3.218293  s :     3.218293
      pz      :     0.858356  p :     2.787037
      px      :     0.945423
      py      :     0.983258
      dz2     :     0.008237  d :     0.034024
      dxz     :     0.009875
      dyz     :     0.003176
      dx2y2   :     0.006168
      dxy     :     0.006569

 10 C s       :     3.083973  s :     3.083973
      pz      :     0.846106  p :     2.639475
      px      :     0.958935
      py      :     0.834434
      dz2     :     0.022990  d :     0.082596
      dxz     :     0.021767
      dyz     :     0.016592
      dx2y2   :     0.009986
      dxy     :     0.011261

 11 O s       :     3.660419  s :     3.660419
      pz      :     1.376460  p :     4.511616
      px      :     1.486558
      py      :     1.648598
      dz2     :     0.005246  d :     0.014512
      dxz     :     0.001965
      dyz     :     0.003628
      dx2y2   :     0.002987
      dxy     :     0.000687

 12 C s       :     3.181744  s :     3.181744
      pz      :     0.917420  p :     3.002325
      px      :     0.928362
      py      :     1.156543
      dz2     :     0.005444  d :     0.026707
      dxz     :     0.008479
      dyz     :     0.003091
      dx2y2   :     0.005503
      dxy     :     0.004190

 13 C s       :     3.077086  s :     3.077086
      pz      :     0.864020  p :     2.614591
      px      :     0.947063
      py      :     0.803508
      dz2     :     0.022196  d :     0.091003
      dxz     :     0.030722
      dyz     :     0.016475
      dx2y2   :     0.008913
      dxy     :     0.012698

 14 O s       :     3.744565  s :     3.744565
      pz      :     1.341713  p :     4.560358
      px      :     1.760702
      py      :     1.457943
      dz2     :     0.005925  d :     0.015132
      dxz     :     0.002516
      dyz     :     0.004813
      dx2y2   :     0.001253
      dxy     :     0.000624

 15 C s       :     3.091726  s :     3.091726
      pz      :     0.912117  p :     2.862050
      px      :     0.921848
      py      :     1.028085
      dz2     :     0.008678  d :     0.037473
      dxz     :     0.011216
      dyz     :     0.005465
      dx2y2   :     0.006421
      dxy     :     0.005692

 16 C s       :     3.208084  s :     3.208084
      pz      :     0.947761  p :     2.753279
      px      :     0.853200
      py      :     0.952318
      dz2     :     0.008145  d :     0.035588
      dxz     :     0.010795
      dyz     :     0.005267
      dx2y2   :     0.005835
      dxy     :     0.005546

 17 C s       :     3.224146  s :     3.224146
      pz      :     0.852396  p :     2.766680
      px      :     0.915970
      py      :     0.998313
      dz2     :     0.006378  d :     0.032008
      dxz     :     0.009592
      dyz     :     0.003486
      dx2y2   :     0.006088
      dxy     :     0.006464

 18 C s       :     2.955605  s :     2.955605
      pz      :     0.951907  p :     2.740467
      px      :     0.850523
      py      :     0.938038
      dz2     :     0.014637  d :     0.076008
      dxz     :     0.022829
      dyz     :     0.008537
      dx2y2   :     0.013525
      dxy     :     0.016480

 19 O s       :     3.713336  s :     3.713336
      pz      :     1.649859  p :     4.574737
      px      :     1.166989
      py      :     1.757889
      dz2     :     0.002187  d :     0.016660
      dxz     :     0.006475
      dyz     :     0.002078
      dx2y2   :     0.002583
      dxy     :     0.003338

 20 C s       :     3.011659  s :     3.011659
      pz      :     0.979877  p :     2.773229
      px      :     0.772025
      py      :     1.021328
      dz2     :     0.008213  d :     0.052948
      dxz     :     0.014543
      dyz     :     0.006576
      dx2y2   :     0.014760
      dxy     :     0.008856

 21 C s       :     3.224007  s :     3.224007
      pz      :     0.934732  p :     2.830696
      px      :     0.848985
      py      :     1.046980
      dz2     :     0.008037  d :     0.032181
      dxz     :     0.008789
      dyz     :     0.004985
      dx2y2   :     0.005854
      dxy     :     0.004517

 22 C s       :     3.253600  s :     3.253600
      pz      :     0.865096  p :     2.712895
      px      :     0.946649
      py      :     0.901150
      dz2     :     0.006990  d :     0.035229
      dxz     :     0.010002
      dyz     :     0.003584
      dx2y2   :     0.006479
      dxy     :     0.008174

 23 H s       :     0.968369  s :     0.968369
      pz      :     0.005624  p :     0.022520
      px      :     0.011808
      py      :     0.005088

 24 H s       :     0.960875  s :     0.960875
      pz      :     0.005159  p :     0.022634
      px      :     0.004315
      py      :     0.013159

 25 H s       :     0.961088  s :     0.961088
      pz      :     0.010541  p :     0.022617
      px      :     0.004303
      py      :     0.007773

 26 H s       :     0.968379  s :     0.968379
      pz      :     0.009001  p :     0.022618
      px      :     0.008940
      py      :     0.004677

 27 H s       :     0.968100  s :     0.968100
      pz      :     0.005591  p :     0.022540
      px      :     0.012411
      py      :     0.004539

 28 H s       :     0.960046  s :     0.960046
      pz      :     0.004455  p :     0.022378
      px      :     0.004812
      py      :     0.013111

 29 H s       :     0.968272  s :     0.968272
      pz      :     0.009201  p :     0.022639
      px      :     0.009016
      py      :     0.004421

 30 H s       :     0.967909  s :     0.967909
      pz      :     0.006124  p :     0.022534
      px      :     0.012386
      py      :     0.004025

 31 H s       :     0.959897  s :     0.959897
      pz      :     0.010185  p :     0.022376
      px      :     0.004915
      py      :     0.007276

 32 H s       :     0.995224  s :     0.995224
      pz      :     0.007568  p :     0.022661
      px      :     0.010283
      py      :     0.004810

 33 H s       :     0.973966  s :     0.973966
      pz      :     0.013901  p :     0.022704
      px      :     0.003541
      py      :     0.005262

 34 H s       :     0.998437  s :     0.998437
      pz      :     0.007636  p :     0.022541
      px      :     0.010301
      py      :     0.004603

 35 H s       :     0.994908  s :     0.994908
      pz      :     0.013457  p :     0.022471
      px      :     0.003361
      py      :     0.005653

 36 H s       :     0.702118  s :     0.702118
      pz      :     0.013880  p :     0.084716
      px      :     0.057174
      py      :     0.013662

 37 H s       :     0.996713  s :     0.996713
      pz      :     0.012998  p :     0.023702
      px      :     0.003436
      py      :     0.007268

 38 H s       :     0.993954  s :     0.993954
      pz      :     0.006507  p :     0.022603
      px      :     0.011446
      py      :     0.004650

 39 H s       :     0.988774  s :     0.988774
      pz      :     0.012957  p :     0.022465
      px      :     0.003027
      py      :     0.006481

 40 H s       :     0.934710  s :     0.934710
      pz      :     0.008211  p :     0.021134
      px      :     0.007150
      py      :     0.005772

 41 H s       :     0.946564  s :     0.946564
      pz      :     0.011957  p :     0.021892
      px      :     0.002661
      py      :     0.007274

 42 H s       :     0.946460  s :     0.946460
      pz      :     0.004728  p :     0.021898
      px      :     0.002841
      py      :     0.014329

 43 H s       :     0.995175  s :     0.995175
      pz      :     0.006472  p :     0.022831
      px      :     0.011176
      py      :     0.005184

 44 H s       :     0.968801  s :     0.968801
      pz      :     0.013435  p :     0.022942
      px      :     0.003495
      py      :     0.006012



                     *******************************
                     * LOEWDIN POPULATION ANALYSIS *
                     *******************************

----------------------
LOEWDIN ATOMIC CHARGES
----------------------
   0 C :   -0.047025
   1 C :   -0.047061
   2 C :   -0.040556
   3 C :   -0.040763
   4 C :    0.007881
   5 C :   -0.033269
   6 C :    0.006468
   7 C :   -0.053520
   8 C :   -0.004217
   9 C :   -0.028176
  10 C :    0.127350
  11 O :   -0.033739
  12 C :   -0.186681
  13 C :    0.109359
  14 O :   -0.204218
  15 C :   -0.083050
  16 C :    0.003888
  17 C :   -0.054816
  18 C :    0.068292
  19 O :   -0.099582
  20 C :    0.079055
  21 C :   -0.083904
  22 C :    0.026464
  23 H :    0.025550
  24 H :    0.023973
  25 H :    0.024095
  26 H :    0.021248
  27 H :    0.023035
  28 H :    0.026582
  29 H :    0.021092
  30 H :    0.023094
  31 H :    0.026584
  32 H :    0.029425
  33 H :    0.036044
  34 H :    0.029409
  35 H :    0.025921
  36 H :    0.050153
  37 H :    0.022649
  38 H :    0.030697
  39 H :    0.034967
  40 H :    0.031545
  41 H :    0.018864
  42 H :    0.018842
  43 H :    0.030018
  44 H :    0.038027

-------------------------------
LOEWDIN REDUCED ORBITAL CHARGES
-------------------------------
  0 C s       :     2.839648  s :     2.839648
      pz      :     1.040867  p :     3.135886
      px      :     1.036545
      py      :     1.058474
      dz2     :     0.010635  d :     0.071491
      dxz     :     0.017668
      dyz     :     0.017196
      dx2y2   :     0.021921
      dxy     :     0.004071

  1 C s       :     2.844852  s :     2.844852
      pz      :     1.035236  p :     3.087485
      px      :     1.017001
      py      :     1.035248
      dz2     :     0.017764  d :     0.114723
      dxz     :     0.027135
      dyz     :     0.024220
      dx2y2   :     0.031853
      dxy     :     0.013751

  2 C s       :     2.842829  s :     2.842829
      pz      :     1.023369  p :     3.126501
      px      :     1.059107
      py      :     1.044025
      dz2     :     0.011470  d :     0.071226
      dxz     :     0.020329
      dyz     :     0.014369
      dx2y2   :     0.022014
      dxy     :     0.003044

  3 C s       :     2.842787  s :     2.842787
      pz      :     1.057994  p :     3.126750
      px      :     1.059671
      py      :     1.009085
      dz2     :     0.007540  d :     0.071226
      dxz     :     0.016599
      dyz     :     0.019212
      dx2y2   :     0.020943
      dxy     :     0.006932

  4 C s       :     2.862125  s :     2.862125
      pz      :     1.055900  p :     3.027084
      px      :     1.039656
      py      :     0.931528
      dz2     :     0.025725  d :     0.102909
      dxz     :     0.034206
      dyz     :     0.013645
      dx2y2   :     0.015922
      dxy     :     0.013411

  5 C s       :     2.856408  s :     2.856408
      pz      :     1.044515  p :     3.087650
      px      :     1.050153
      py      :     0.992982
      dz2     :     0.021843  d :     0.089211
      dxz     :     0.032996
      dyz     :     0.010672
      dx2y2   :     0.013308
      dxy     :     0.010392

  6 C s       :     2.858648  s :     2.858648
      pz      :     1.040571  p :     3.046086
      px      :     1.057955
      py      :     0.947561
      dz2     :     0.020351  d :     0.088798
      dxz     :     0.028951
      dyz     :     0.006572
      dx2y2   :     0.016979
      dxy     :     0.015946

  7 C s       :     2.848085  s :     2.848085
      pz      :     1.062998  p :     3.101905
      px      :     1.030696
      py      :     1.008211
      dz2     :     0.026458  d :     0.103529
      dxz     :     0.034296
      dyz     :     0.013492
      dx2y2   :     0.017127
      dxy     :     0.012157

  8 C s       :     2.856264  s :     2.856264
      pz      :     1.039459  p :     3.058160
      px      :     1.054081
      py      :     0.964620
      dz2     :     0.022036  d :     0.089794
      dxz     :     0.032071
      dyz     :     0.011299
      dx2y2   :     0.013342
      dxy     :     0.011045

  9 C s       :     2.855440  s :     2.855440
      pz      :     1.033655  p :     3.083768
      px      :     1.060082
      py      :     0.990030
      dz2     :     0.021885  d :     0.088968
      dxz     :     0.028109
      dyz     :     0.006677
      dx2y2   :     0.017640
      dxy     :     0.014657

 10 C s       :     2.851511  s :     2.851511
      pz      :     0.909985  p :     2.838121
      px      :     1.077470
      py      :     0.850667
      dz2     :     0.051019  d :     0.183018
      dxz     :     0.050569
      dyz     :     0.034460
      dx2y2   :     0.023419
      dxy     :     0.023551

 11 O s       :     3.422008  s :     3.422008
      pz      :     1.429968  p :     4.584925
      px      :     1.516770
      py      :     1.638187
      dz2     :     0.009921  d :     0.026806
      dxz     :     0.003901
      dyz     :     0.006563
      dx2y2   :     0.005577
      dxy     :     0.000844

 12 C s       :     2.855465  s :     2.855465
      pz      :     1.064836  p :     3.253118
      px      :     1.035256
      py      :     1.153026
      dz2     :     0.016377  d :     0.078098
      dxz     :     0.026348
      dyz     :     0.007807
      dx2y2   :     0.016633
      dxy     :     0.010933

 13 C s       :     2.858094  s :     2.858094
      pz      :     0.953863  p :     2.825215
      px      :     1.052961
      py      :     0.818391
      dz2     :     0.049853  d :     0.207332
      dxz     :     0.074142
      dyz     :     0.035304
      dx2y2   :     0.020379
      dxy     :     0.027654

 14 O s       :     3.535473  s :     3.535473
      pz      :     1.436859  p :     4.642197
      px      :     1.729741
      py      :     1.475597
      dz2     :     0.010480  d :     0.026548
      dxz     :     0.004584
      dyz     :     0.008513
      dx2y2   :     0.001894
      dxy     :     0.001077

 15 C s       :     2.852890  s :     2.852890
      pz      :     1.053168  p :     3.128808
      px      :     1.040040
      py      :     1.035600
      dz2     :     0.023550  d :     0.101352
      dxz     :     0.032724
      dyz     :     0.013748
      dx2y2   :     0.017690
      dxy     :     0.013640

 16 C s       :     2.857150  s :     2.857150
      pz      :     1.033799  p :     3.047764
      px      :     1.051881
      py      :     0.962085
      dz2     :     0.021278  d :     0.091198
      dxz     :     0.029493
      dyz     :     0.012771
      dx2y2   :     0.014991
      dxy     :     0.012665

 17 C s       :     2.859100  s :     2.859100
      pz      :     1.035229  p :     3.110516
      px      :     1.050571
      py      :     1.024715
      dz2     :     0.016877  d :     0.085200
      dxz     :     0.027528
      dyz     :     0.007752
      dx2y2   :     0.017632
      dxy     :     0.015410

 18 C s       :     2.839778  s :     2.839778
      pz      :     1.034531  p :     2.917190
      px      :     0.932668
      py      :     0.949991
      dz2     :     0.034728  d :     0.174741
      dxz     :     0.055359
      dyz     :     0.019390
      dx2y2   :     0.030641
      dxy     :     0.034621

 19 O s       :     3.423960  s :     3.423960
      pz      :     1.664332  p :     4.644377
      px      :     1.233103
      py      :     1.746942
      dz2     :     0.003560  d :     0.031245
      dxz     :     0.012606
      dyz     :     0.002455
      dx2y2   :     0.006185
      dxy     :     0.006439

 20 C s       :     2.845866  s :     2.845866
      pz      :     1.040015  p :     2.955889
      px      :     0.840177
      py      :     1.075697
      dz2     :     0.018889  d :     0.119191
      dxz     :     0.032962
      dyz     :     0.015957
      dx2y2   :     0.032288
      dxy     :     0.019095

 21 C s       :     2.856373  s :     2.856373
      pz      :     1.041421  p :     3.141408
      px      :     1.053233
      py      :     1.046754
      dz2     :     0.021736  d :     0.086123
      dxz     :     0.025911
      dyz     :     0.012718
      dx2y2   :     0.015130
      dxy     :     0.010628

 22 C s       :     2.858690  s :     2.858690
      pz      :     1.030358  p :     3.024509
      px      :     1.056708
      py      :     0.937443
      dz2     :     0.018140  d :     0.090337
      dxz     :     0.027294
      dyz     :     0.007860
      dx2y2   :     0.018200
      dxy     :     0.018843

 23 H s       :     0.910598  s :     0.910598
      pz      :     0.016664  p :     0.063852
      px      :     0.034398
      py      :     0.012791

 24 H s       :     0.911688  s :     0.911688
      pz      :     0.014496  p :     0.064339
      px      :     0.012333
      py      :     0.037510

 25 H s       :     0.911603  s :     0.911603
      pz      :     0.030718  p :     0.064301
      px      :     0.012378
      py      :     0.021205

 26 H s       :     0.914510  s :     0.914510
      pz      :     0.026871  p :     0.064242
      px      :     0.024374
      py      :     0.012997

 27 H s       :     0.913243  s :     0.913243
      pz      :     0.016538  p :     0.063721
      px      :     0.034756
      py      :     0.012427

 28 H s       :     0.909618  s :     0.909618
      pz      :     0.013387  p :     0.063800
      px      :     0.012039
      py      :     0.038374

 29 H s       :     0.914602  s :     0.914602
      pz      :     0.025511  p :     0.064306
      px      :     0.024530
      py      :     0.014266

 30 H s       :     0.913184  s :     0.913184
      pz      :     0.016115  p :     0.063722
      px      :     0.034661
      py      :     0.012947

 31 H s       :     0.909613  s :     0.909613
      pz      :     0.028598  p :     0.063802
      px      :     0.012282
      py      :     0.022922

 32 H s       :     0.902264  s :     0.902264
      pz      :     0.022688  p :     0.068310
      px      :     0.030306
      py      :     0.015316

 33 H s       :     0.894398  s :     0.894398
      pz      :     0.040598  p :     0.069558
      px      :     0.012425
      py      :     0.016535

 34 H s       :     0.903054  s :     0.903054
      pz      :     0.022887  p :     0.067537
      px      :     0.030186
      py      :     0.014465

 35 H s       :     0.906918  s :     0.906918
      pz      :     0.038489  p :     0.067161
[...]
  0-1A  ->  4-1A    5.040584   40655.1   246.0   0.016738685   0.13554   0.15992  -0.14483   0.29832
  0-1A  ->  5-1A    5.098136   41119.2   243.2   0.065954480   0.52805   0.17361  -0.30226   0.63761
  0-1A  ->  6-1A    5.662861   45674.1   218.9   0.096138656   0.69295  -0.63723  -0.21627   0.49001
  0-1A  ->  7-1A    5.849257   47177.4   212.0   0.008529147   0.05952  -0.10158   0.07395  -0.20912
  0-1A  ->  8-1A    6.191662   49939.1   200.2   0.098078916   0.64656   0.31202   0.32477  -0.66613
  0-1A  ->  9-1A    6.234881   50287.7   198.9   0.103467815   0.67736  -0.43070   0.23902  -0.65934
  0-1A  -> 10-1A    6.390012   51538.9   194.0   0.048293493   0.30848  -0.52201   0.08660  -0.16877
  0-1A  -> 11-1A    6.434992   51901.7   192.7   0.000473888   0.00301   0.04990  -0.01549   0.01662
  0-1A  -> 12-1A    6.508765   52496.7   190.5   0.061674094   0.38676  -0.49200   0.18022  -0.33499
  0-1A  -> 13-1A    6.784827   54723.3   182.7   0.032070064   0.19293  -0.34692  -0.09101   0.25357
  0-1A  -> 14-1A    6.856701   55303.0   180.8   0.001293085   0.00770   0.07615  -0.01250  -0.04175
  0-1A  -> 15-1A    6.945079   56015.8   178.5   0.390314439   2.29393   1.44475   0.15144  -0.42858
  0-1A  -> 16-1A    7.003935   56490.5   177.0   0.000515208   0.00300  -0.02548   0.03914   0.02866
  0-1A  -> 17-1A    7.095915   57232.4   174.7   0.001271542   0.00731  -0.06772   0.04469   0.02703
  0-1A  -> 18-1A    7.180810   57917.1   172.7   0.004033313   0.02293   0.04310   0.13782   0.04556
  0-1A  -> 19-1A    7.227816   58296.3   171.5   0.003728420   0.02106   0.12928   0.01740   0.06355
  0-1A  -> 20-1A    7.256857   58530.5   170.9   0.481614731   2.70890   1.58852  -0.23441   0.36132
  0-1A  -> 21-1A    7.412962   59789.6   167.3   0.000603694   0.00332  -0.00368  -0.05753  -0.00064
  0-1A  -> 22-1A    7.467089   60226.1   166.0   0.084760473   0.46332  -0.68025  -0.02313  -0.00644

----------------------------------------------------------------------------------------------------
                     ABSORPTION SPECTRUM VIA TRANSITION VELOCITY DIPOLE MOMENTS    
----------------------------------------------------------------------------------------------------
     Transition      Energy     Energy  Wavelength fosc(P2)      P2        PX        PY        PZ   
                      (eV)      (cm-1)    (nm)                 (au**2)    (au)      (au)      (au)  
----------------------------------------------------------------------------------------------------
  0-1A  ->  1-1A    4.168850   33624.0   297.4   0.016413066   0.00377  -0.06072   0.00442   0.00809
  0-1A  ->  2-1A    4.174982   33673.5   297.0   0.581594823   0.13385   0.36434   0.00309  -0.03311
  0-1A  ->  3-1A    4.994174   40280.7   248.3   0.002673908   0.00074   0.02145   0.00466  -0.01594
  0-1A  ->  4-1A    5.040584   40655.1   246.0   0.002710617   0.00075  -0.02615  -0.00262   0.00790
  0-1A  ->  5-1A    5.098136   41119.2   243.2   0.002972110   0.00084  -0.02856   0.00269  -0.00353
  0-1A  ->  6-1A    5.662861   45674.1   218.9   0.052792433   0.01648   0.12231   0.01112  -0.03736
  0-1A  ->  7-1A    5.849257   47177.4   212.0   0.003849131   0.00124   0.01870  -0.01437   0.02617
  0-1A  ->  8-1A    6.191662   49939.1   200.2   0.006110240   0.00209   0.02986   0.01408  -0.03156
  0-1A  ->  9-1A    6.234881   50287.7   198.9   0.010853877   0.00373   0.00776   0.02169  -0.05657
  0-1A  -> 10-1A    6.390012   51538.9   194.0   0.024778331   0.00873   0.08926   0.00876  -0.02616
  0-1A  -> 11-1A    6.434992   51901.7   192.7   0.000206301   0.00007  -0.00818   0.00080   0.00237
  0-1A  -> 12-1A    6.508765   52496.7   190.5   0.018967978   0.00681   0.08222  -0.00481   0.00473
  0-1A  -> 13-1A    6.784827   54723.3   182.7   0.012468124   0.00466   0.06829  -0.00034   0.00010
  0-1A  -> 14-1A    6.856701   55303.0   180.8   0.000742509   0.00028  -0.01400   0.00818   0.00421
  0-1A  -> 15-1A    6.945079   56015.8   178.5   0.145617670   0.05575  -0.23436  -0.00694   0.02786
  0-1A  -> 16-1A    7.003935   56490.5   177.0   0.000298926   0.00012   0.00486  -0.00875  -0.00390
  0-1A  -> 17-1A    7.095915   57232.4   174.7   0.000417814   0.00016   0.01236  -0.00265  -0.00190
  0-1A  -> 18-1A    7.180810   57917.1   172.7   0.000566796   0.00022  -0.00811  -0.01144  -0.00526
  0-1A  -> 19-1A    7.227816   58296.3   171.5   0.001951432   0.00078  -0.02186  -0.01299  -0.01144
  0-1A  -> 20-1A    7.256857   58530.5   170.9   0.172438146   0.06898  -0.25987   0.02681  -0.02701
  0-1A  -> 21-1A    7.412962   59789.6   167.3   0.000199056   0.00008   0.00055   0.00881   0.00187
  0-1A  -> 22-1A    7.467089   60226.1   166.0   0.021582900   0.00888   0.08580   0.01196  -0.03714

------------------------------------------------------------------------------------------
                     CD SPECTRUM VIA TRANSITION ELECTRIC DIPOLE MOMENTS    
------------------------------------------------------------------------------------------
     Transition      Energy     Energy  Wavelength    R        MX        MY        MZ   
                      (eV)      (cm-1)    (nm)   (1e40*cgs)   (au)      (au)      (au)  
------------------------------------------------------------------------------------------
  0-1A  ->  1-1A    4.168850   33624.0   297.4   -0.06465   0.00716   0.14456  -0.15304
  0-1A  ->  2-1A    4.174982   33673.5   297.0    0.36095  -0.01448  -0.38672  -0.21489
  0-1A  ->  3-1A    4.994174   40280.7   248.3   -0.64438  -0.00435   0.02638   0.00238
  0-1A  ->  4-1A    5.040584   40655.1   246.0   -0.10749  -0.00795  -0.22948  -0.10638
  0-1A  ->  5-1A    5.098136   41119.2   243.2   -1.72526  -0.00235  -0.07277  -0.02811
  0-1A  ->  6-1A    5.662861   45674.1   218.9   -4.82248  -0.01486  -0.30168  -0.13159
  0-1A  ->  7-1A    5.849257   47177.4   212.0   -1.30790  -0.00762   0.00543  -0.00764
  0-1A  ->  8-1A    6.191662   49939.1   200.2    0.96604  -0.00087  -0.02208  -0.00809
  0-1A  ->  9-1A    6.234881   50287.7   198.9    4.78735  -0.00031  -0.07001  -0.00977
  0-1A  -> 10-1A    6.390012   51538.9   194.0    3.29813   0.00607   0.02993   0.03805
  0-1A  -> 11-1A    6.434992   51901.7   192.7   -2.81858   0.02615  -0.09023   0.19707
  0-1A  -> 12-1A    6.508765   52496.7   190.5   -2.21911  -0.00282   0.05076   0.01740
  0-1A  -> 13-1A    6.784827   54723.3   182.7   -1.79687  -0.01510  -0.02397  -0.01424
  0-1A  -> 14-1A    6.856701   55303.0   180.8    3.08415  -0.06020  -0.01208   0.05051
  0-1A  -> 15-1A    6.945079   56015.8   178.5   -4.95790   0.01660   0.14013   0.08094
  0-1A  -> 16-1A    7.003935   56490.5   177.0   -0.79285  -0.07432   0.01304  -0.02520
  0-1A  -> 17-1A    7.095915   57232.4   174.7    1.63057   0.04438  -0.05112   0.06777
  0-1A  -> 18-1A    7.180810   57917.1   172.7    0.42038   0.01355  -0.09281   0.24835
  0-1A  -> 19-1A    7.227816   58296.3   171.5   -6.03272   0.11046   0.06668  -0.04161
  0-1A  -> 20-1A    7.256857   58530.5   170.9    9.77327   0.00069   0.37289   0.18151
  0-1A  -> 21-1A    7.412962   59789.6   167.3   -1.36452  -0.06049  -0.04742   0.08858
  0-1A  -> 22-1A    7.467089   60226.1   166.0   -1.47325  -0.00084  -0.09623  -0.05087

------------------------------------------------------------------------------------------
                     CD SPECTRUM VIA TRANSITION VELOCITY DIPOLE MOMENTS    
------------------------------------------------------------------------------------------
     Transition      Energy     Energy  Wavelength    R        MX        MY        MZ   
                      (eV)      (cm-1)    (nm)   (1e40*cgs)   (au)      (au)      (au)  
------------------------------------------------------------------------------------------
  0-1A  ->  1-1A    4.168850   33624.0   297.4   -3.18058   0.00716   0.14456  -0.15304
  0-1A  ->  2-1A    4.174982   33673.5   297.0    1.97744  -0.01448  -0.38672  -0.21489
  0-1A  ->  3-1A    4.994174   40280.7   248.3   -0.02136  -0.00435   0.02638   0.00238
  0-1A  ->  4-1A    5.040584   40655.1   246.0   -0.07699  -0.00795  -0.22948  -0.10638
  0-1A  ->  5-1A    5.098136   41119.2   243.2   -0.07377  -0.00235  -0.07277  -0.02811
  0-1A  ->  6-1A    5.662861   45674.1   218.9   -0.57444  -0.01486  -0.30168  -0.13159
  0-1A  ->  7-1A    5.849257   47177.4   212.0   -0.92242  -0.00762   0.00543  -0.00764
  0-1A  ->  8-1A    6.191662   49939.1   200.2   -0.16841  -0.00087  -0.02208  -0.00809
  0-1A  ->  9-1A    6.234881   50287.7   198.9   -1.99236  -0.00031  -0.07001  -0.00977
  0-1A  -> 10-1A    6.390012   51538.9   194.0   -0.38466   0.00607   0.02993   0.03805
  0-1A  -> 11-1A    6.434992   51901.7   192.7    0.36284   0.02615  -0.09023   0.19707
  0-1A  -> 12-1A    6.508765   52496.7   190.5   -0.77641  -0.00282   0.05076   0.01740
  0-1A  -> 13-1A    6.784827   54723.3   182.7   -1.93771  -0.01510  -0.02397  -0.01424
  0-1A  -> 14-1A    6.856701   55303.0   180.8    1.78988  -0.06020  -0.01208   0.05051
  0-1A  -> 15-1A    6.945079   56015.8   178.5   -4.81639   0.01660   0.14013   0.08094
  0-1A  -> 16-1A    7.003935   56490.5   177.0   -0.69097  -0.07432   0.01304  -0.02520
  0-1A  -> 17-1A    7.095915   57232.4   174.7    1.00375   0.04438  -0.05112   0.06777
  0-1A  -> 18-1A    7.180810   57917.1   172.7   -0.63367   0.01355  -0.09281   0.24835
  0-1A  -> 19-1A    7.227816   58296.3   171.5   -4.97858   0.11046   0.06668  -0.04161
  0-1A  -> 20-1A    7.256857   58530.5   170.9    8.68781   0.00069   0.37289   0.18151
  0-1A  -> 21-1A    7.412962   59789.6   167.3   -0.49441  -0.06049  -0.04742   0.08858
  0-1A  -> 22-1A    7.467089   60226.1   166.0    1.14512  -0.00084  -0.09623  -0.05087

Total run time:      465.073 sec

           *** ORCA-CIS/TD-DFT FINISHED WITHOUT ERROR ***
-----------------------
CIS/TD-DFT TOTAL ENERGY
-----------------------

    E(SCF)  =   -999.809436861 Eh
    DE(CIS) =      0.153202437 Eh (Root  1)
    ----------------------------- ---------
    E(tot)  =   -999.656234424 Eh


Maximum memory used throughout the entire CIS-calculation: 796.9 MB
=> NOW LEAVING ORCA_CIS

-------------------------   --------------------
FINAL SINGLE POINT ENERGY      -999.656234424214
-------------------------   --------------------



           ************************************************************
           *        Program running with 4 parallel MPI-processes     *
           *              working on a common directory               *
           ************************************************************

------------------------------------------------------------------------------
                              ORCA PROPERTY CALCULATIONS
------------------------------------------------------------------------------

GBWName                                 ... td.gbw
Number of atoms                         ...     45
Number of basis functions               ...    432
Max core memory                         ...   2500 MB

Electric properties:
Dipole moment                           ... YES
Quadrupole moment                       ...  NO
Static polarizability (Dipole/Dipole)   ...  NO
Static polarizability (Dipole/Quad.)    ...  NO
Static polarizability (Quad./Quad.)     ...  NO
Static polarizability (Velocity)        ...  NO
Static hyperpolarizability              ...  NO

Atomic electric properties:
Dipole moment                           ...  NO
Quadrupole moment                       ...  NO
Static polarizability                   ...  NO

Choice of electric origin               ... Center of mass
Position of electric origin             ...     1.210340     0.162023    -0.498887

General magnetic properties:
Magnetizability                         ...  NO

EPR properties:
g-Tensor (aka g-matrix)                 ...  NO
Zero-Field splitting spin-orbit         ...  NO
Zero-field splitting spin-spin          ...  NO
Hyperfine couplings                     ...  NO (   0 nuclei)
Quadrupole couplings                    ...  NO (   0 nuclei)
Contact density                         ...  NO (   0 nuclei)

NMR properties:
Chemical shifts                         ...  NO (   0 nuclei)
Spin-rotation constants                 ...  NO (   0 nuclei)
Spin-spin couplings                     ...  NO (   0 nuclei,    0 pairs)

Choice of magnetic origin               ... GIAO
Position of magnetic origin             ...     0.000000     0.000000     0.000000

Properties with geometric perturbations:
SCF Hessian                             ...  NO
IR spectrum                             ...  NO
VCD spectrum                            ...  NO
X-ray spectroscopy properties:
SCF XES/XAS/RIXS spectra                ...  NO

SCF SOC stabilization energy            ...  NO
Diagonal Born-Oppenheimer correction    ...  NO

-------------
DIPOLE MOMENT
-------------

Method             : SCF
Type of density    : Electron Density
Multiplicity       :   1
Irrep              :   0
Energy             :  -999.8094368611119762 Eh
Basis              : AO
                                X                 Y                 Z
Electronic contribution:     26.859173779       3.871577935     -10.065236472
Nuclear contribution   :    -26.622495753      -4.331659261      11.023216910
                        -----------------------------------------
Total Dipole Moment    :      0.236678026      -0.460081326       0.957980437
                        -----------------------------------------
Magnitude (a.u.)       :      1.088768953
Magnitude (Debye)      :      2.767430747



--------------------
Rotational spectrum 
--------------------
 
Rotational constants in cm-1:             0.024910             0.002523             0.002328 
Rotational constants in MHz :           746.791397            75.639829            69.799933 

Dipole components along the rotational axes: 
x,y,z [a.u.] :     0.216094    -1.067007    -0.014764 
x,y,z [Debye]:     0.549266    -2.712116    -0.037528 

 

Dipole moment calculation done in   0.1 sec 

Maximum memory used throughout the entire PROP-calculation: 22.7 MB

--------------------------------
SUGGESTED CITATIONS FOR THIS RUN
--------------------------------

Below you find a list of papers that are relevant to this ORCA run
We neither can nor want to force you to cite these papers, but we appreciate if you do
You receive ORCA, which is the product of decades of hard work by many enthusiastic individuals, for free
The only thing we kindly ask in return is that you cite our papers,
We deeply appreciate it, if you show your appreciation for ORCA by not just citing the generic ORCA reference.

Please note that relegating all ORCA citations to the supporting information does *not* help us.
SI sections are not indexed - citations you put there will not count into any citation statistics
But we need these citations in order to attract the funding resources that allow us to do what we are doing

Therefore, if you are a happy ORCA user, please consider citing a few of the papers listed below in the main body of your paper

In addition to the list printed below, the program has created the file td.bibtex that contains the list in bibtex format
You can import this file easily into all common literature databanks and citation aid programs

It goes without saying that in many instances, there are alternative algorithms to achieve similar
results as the ones you have gotten from ORCA. It is, of course, also the case that in some instances
ORCA just re-implements algorithms worked out by others. We are fully aware of that and we are also
fully appreciative of our colleagues work. Hence this citation list should not be read as indicating
that the listed papers, which are focused on our own work, are the only ones worth citing. It simply
meant to make it easier for users to cite ORCA specific papers. It is not a substitute for doing your
own literature research and citing the relevant literature in a scientifically appropriate manner.

List of essential papers. We consider these as the minimum necessary citations

  1. Neese, F.
     Software update: the ORCA program system, version 6.0
     WIRES Comput. Molec. Sci. 2025 15(1), e70019
     doi.org/10.1002/wcms.70019

List of papers to cite with high priority. The work reported in these papers was absolutely
necessary for this run to complete.
Our perspective: the developers of density functionals and basis sets usually get cited in chemistry papers
Good! But without the algorithms to do something with them, the functionals or basis sets would not do anything.
Hence, in our opinion, the algorithm design and method developments papers are equally worthy of getting cited

  1. Neese, F.; Olbrich, G.
     Efficient use of the resolution of the identity approximation in time-dependent density functional calculations with hybrid density functionals
     Chem. Phys. Lett. 2002 362 , 170-178
     doi.org/10.1016/s0009-2614(02)01053-9
  2. Neese, F.
     An improvement of the resolution of the identity approximation for the formation of the Coulomb matrix
     J. Comp. Chem. 2003 24(14), 1740-1747
     doi.org/10.1002/jcc.10318
  3. Neese, F.; Wennmohs, F.; Hansen, A.; Becker, U.
     Efficient, approximate and parallel Hartree-Fock and hybrid DFT calculations. A 'chain-of-spheres' algorithm for the Hartree-Fock exchange
     Chem. Phys. 2009 356(1-3), 98-109
     doi.org/10.1016/j.chemphys.2008.10.036
  4. Helmich-Paris, B.; de Souza, B.; Neese, F.; Izsák, R.
     An improved chain of spheres for exchange algorithm
     J. Chem. Phys. 2021 155(10), 104109
     doi.org/10.1063/5.0058766
  5. Neese, F.
     The SHARK Integral Generation and Digestion System
     J. Comp. Chem. 2022 44(3), 381
     doi.org/10.1002/jcc.26942

List of suggested additional citations. These are papers that are important in the 'surrounding' of 
of this run, or papers that preceded the highly important papers. If you like your results we are grateful for a citation.

  1. Izsak, R.; Neese, F.
     An overlap fitted chain of spheres exchange method
     J. Chem. Phys. 2011 135 , 144105
     doi.org/10.1063/1.3646921
  2. Izsak, R.; Hansen, A.; Neese, F.
     The resolution of identity and chain of spheres approximations for the LPNO-CCSD singles Fock term
     Molec. Phys. 2012 110 , 2413-2417
     doi.org/10.1080/00268976.2012.687466
  3. Neese, F.
     The ORCA program system
     WIRES Comput. Molec. Sci. 2012 2(1), 73-78
     doi.org/10.1002/wcms.81
  4. Izsak, R.; Neese, F.; Klopper, W.
     Robust fitting techniques in the chain of spheres approximation to the Fock exchange: The role of the complementary space
     J. Chem. Phys. 2013 139 , 
     doi.org/10.1063/1.4819264
  5. Neese, F.
     Software update: the ORCA program system, version 4.0
     WIRES Comput. Molec. Sci. 2018 8(1), 1-6
     doi.org/10.1002/wcms.1327
  6. Neese, F.; Wennmohs, F.; Becker, U.; Riplinger, C.
     The ORCA quantum chemistry program package
     J. Chem. Phys. 2020 152(22), 224108
     doi.org/10.1063/5.0004608
  7. Neese, F.
     Software update: The ORCA program system—Version 5.0
     WIRES Comput. Molec. Sci. 2022 12(1), e1606
     doi.org/10.1002/wcms.1606

List of optional additional citations

  1. Neese, F.
     Approximate second-order SCF convergence for spin unrestricted wavefunctions
     Chem. Phys. Lett. 2000 325(1-3), 93-98
     doi.org/10.1016/s0009-2614(00)00662-x

Timings for individual modules:

Sum of individual times          ...      730.144 sec (=  12.169 min)
Startup calculation              ...        9.325 sec (=   0.155 min)   1.3 %
SCF iterations                   ...      254.046 sec (=   4.234 min)  34.8 %
Property integrals               ...        0.661 sec (=   0.011 min)   0.1 %
Property calculations            ...        0.614 sec (=   0.010 min)   0.1 %
CIS module                       ...      465.498 sec (=   7.758 min)  63.8 %
                             ****ORCA TERMINATED NORMALLY****
TOTAL RUN TIME: 0 days 0 hours 12 minutes 11 seconds 540 msec
