
                                 *****************
                                 * O   R   C   A *
                                 *****************

                                            #,                                       
                                            ###                                      
                                            ####                                     
                                            #####                                    
                                            ######                                   
                                           ########,                                 
                                     ,,################,,,,,                         
                               ,,#################################,,                 
                          ,,##########################################,,             
                       ,#########################################, ''#####,          
                    ,#############################################,,   '####,        
                  ,##################################################,,,,####,       
                ,###########''''           ''''###############################       
              ,#####''   ,,,,##########,,,,          '''####'''          '####       
            ,##' ,,,,###########################,,,                        '##       
           ' ,,###''''                  '''############,,,                           
         ,,##''                                '''############,,,,        ,,,,,,###''
      ,#''                                            '''#######################'''  
     '                                                          ''''####''''         
             ,#######,   #######,   ,#######,      ##                                
            ,#'     '#,  ##    ##  ,#'     '#,    #''#        ,####,    ,#,          
            ##       ##  ##   ,#'  ##            #'  '#       #'       ,# #          
            ##       ##  #######   ##           ,######,      #####,      #          
            '#,     ,#'  ##    ##  '#,     ,#' ,#      #,     #,   #      #          
             '#######'   ##     ##  '#######'  #'      '#     '####' #    #          



                #########################################################
                #                        -***-                          #
                #          Department of theory and spectroscopy        #
                #                                                       #
                #                      Frank Neese                      #
                #                                                       #
                #     Directorship, Architecture, Infrastructure        #
                #                    SHARK, DRIVERS                     #
                #        Core code/Algorithms in most modules           #
                #                                                       #
                #        Max Planck Institute fuer Kohlenforschung      #
                #                Kaiser Wilhelm Platz 1                 #
                #                 D-45470 Muelheim/Ruhr                 #
                #                      Germany                          #
                #                                                       #
                #                  All rights reserved                  #
                #                        -***-                          #
                #########################################################


                         Program Version 6.1.1  -  RELEASE   -


 With contributions from (in alphabetic order):
[Max-Planck-Institut fuer Kohlenforschung]                               
  Daniel Aravena         : Magnetic Suceptibility                        
  Michael Atanasov       : Ab Initio Ligand Field Theory (pilot matlab implementation)
  Alexander A. Auer      : GIAO ZORA, VPT2 properties, NMR spectrum      
  Ute Becker             : All parallelization in ORCA, NUMFREQ, NUMCALC 
  Giovanni Bistoni       : ED, misc. LED, open-shell LED, HFLD           
  Dmytro Bykov           : pre 5.0 version of the SCF Hessian            
  Marcos Casanova-Páez   : Triplet and SCS-CIS(D). UHF-(DLPNO)-IP/EA/STEOM-CCSD. UHF-CVS-IP/STEOM-CCSD   
  Vijay G. Chilkuri      : MRCI spin determinant printing, contributions to CSF-ICE 
  Pauline Colinet        : FMM embedding                                 
  Dipayan Datta          : RHF DLPNO-CCSD density                        
  Achintya Kumar Dutta   : EOM-CC, STEOM-CC                              
  Nicolas Foglia         : Exact transition moments, OPA infrastructure, MCD improvements    
  Dmitry Ganyushin       : Spin-Orbit,Spin-Spin,Magnetic field MRCI      
  Miquel Garcia-Rates    : C-PCM and meta-GGA Hessian, CCSD/C-PCM, Gaussian charge scheme 
  Tiago L. C. Gouveia    : GS-ROHF, GS-ROCIS                             
  Yang Guo               : DLPNO-NEVPT2, F12-NEVPT2, CIM, IAO-localization        
  Andreas Hansen         : Spin unrestricted coupled pair/coupled cluster methods 
  Ingolf Harden          : AUTO-CI MPn and infrastructure                
  Benjamin Helmich-Paris : MC-RPA, TRAH-(SCF,CASSCF), AVAS, COSX integrals, SCF dyn. polar., MC-PDFT, srDFT 
  Lee Huntington         : MR-EOM, pCC                                   
  Robert Izsak           : Overlap fitted RIJCOSX, COSX-SCS-MP3, EOM     
  Riya Kayal             : Wick's Theorem for AUTO-CI, AUTO-CI UHF-CCSDT 
  Emily Kempfer          : AUTO-CI RHF CISDT and CCSDT, approximate NEVPT4
  Christian Kollmar      : KDIIS, OOCD, Brueckner-CCSD(T), CCSD density, CASPT2, CASPT2-K, improved NEVPT2 
  Axel Koslowski         : Symmetry handling                             
  Simone Kossmann        : meta-GGA functionals, TD-DFT gradient, OOMP2, (MP2 Hessian; deprecated post 5.0) 
  Lucas Lang             : DCDCAS, Hyperfine gauge corrections, ICE-SOC+SSC
  Marvin Lechner         : AUTO-CI (C++ implementation), FIC-MRCC        
  Spencer Leger          : CASSCF response                               
  Dagmar Lenk            : GEPOL surface, SMD, ORCA-2-JSON               
  Dimitrios Liakos       : Extrapolation schemes; Compound Job, Property file
  Dimitrios Manganas     : Further ROCIS development; embedding schemes. LFT, Crystal Embedding 
  Dimitrios Pantazis     : SARC Basis sets                               
  Anastasios Papadopoulos: AUTO-CI, single reference methods and gradients 
  Taras Petrenko         : pre 6.0 DFT Hessian and TD-DFT gradient,  ECA, NRVS 
  Petra Pikulova         : Analytic Raman intensities                    
  Peter Pinski           : DLPNO-MP2, DLPNO-MP2 Gradient                 
  Shashank Vittal Rao    : ES-AILFT, MagRelax                            
  Christoph Reimann      : Effective Core Potentials                     
  Marius Retegan         : Local ZFS, SOC                                
  Christoph Riplinger    : Optimizer, TS searches, QM/MM, DLPNO-CCSD(T), (RO)-DLPNO pert. Triples 
  Michael Roemelt        : Original ROCIS implementation, recursive CI coupling coefficients
  Masaaki Saitow         : Open-shell DLPNO-CCSD energy and density      
  Barbara Sandhoefer     : DKH picture change effects                    
  Yorick L. A. Schmerwitz: GMF and freeze-and-release deltaSCF, NEB S-IDPP initial path                    
  Kantharuban Sivalingam : CASSCF convergence/infrastructure, NEVPT2, NEVPT3, NEVPT4(SD), FIC-MRCI and CEPA variants
  Bernardo de Souza      : ESD, SOC TD-DFT                               
  Georgi L. Stoychev     : AutoAux, RI-MP2 NMR, DLPNO-MP2 response, X2C  
  Van Anh Tran           : RI-MP2 g-tensors                              
  Willem Van den Heuvel  : Paramagnetic NMR                              
  Zikuan Wang            : NOTCH, Electric field optimization            
  Frank Wennmohs         : Technical directorship and infrastructure     
  Hang Xu                : AUTO-CI-Response properties                   
                                                                         
[FACCTs GmbH]                                                            
  Markus Bursch, Nicolas Foglia, Miquel Garcia-Rates, Ingolf Harden, Hagen Neugebauer, Anastasios Papadopoulos, 
  Christoph Riplinger, Bernardo de Souza, Georgi L. Stoychev                                                    
                                                                 
  APM, various basis sets, CI-OPT, improved COSX, DLPNO-Multilevel,           
  DOCKER, DRACO, updates on ESD, Fragmentator, GOAT, IRC, LR-CPCM, L-BFGS, MBIS, meta-GGA TD-DFT gradient, ML-optimized integration grids, 
  MM, NACMEs, nearIR, NEB, NEB-TS, NL-DFT gradient (VV10), 2- and 3-layer-ONIOM, interface openCOSMO-RS, QMMM,   
  Crystal-QMMM, RESP, rigid body optimization, SF, symmetry and pop. for TD-DFT, various functionals, SOLVATOR                                   
                                                                         
[Other institutions]                                                     
  V. Asgeirsson          : NEB                                           
  Christoph Bannwarth    : sTDA-DFT, sTD-DFT, PBEh-3c, B97-3c, D3        
  Giovanni Bistoni       : ETS/NOCV, ADLD/ADEX, COVALED                  
  Martin Brehm           : Molecular dynamics                            
  Ronald Cardenas        : ETS/NOCV                                      
  Martina Colucci        : COVALED                                       
  Sebastian Ehlert       : rSCAN, r2SCAN, r2SCAN-3c, D4, dhf basis sets  
  Marvin Friede          : D4 for Fr, Ra, Ac-Lr                          
  Lars Goerigk           : TD-DFT with DH, B97 family of functionals     
  Stefan Grimme          : VdW corrections, initial TS optimization, DFT functionals, gCP, sTDA/sTD-DF 
  Waldemar Hujo          : DFT-NL                                        
  H. Jonsson             : NEB                                           
  Holger Kruse           : gCP                                           
  Marcel Mueller         : wB97X-3c, vDZP basis set                      
  Hagen Neugebauer       : wr2SCAN, Native XTB                           
  Gianluca Regni         : ADLD/ADEX                                     
  Tobias Risthaus        : pre 6.0 range-separated hybrid DFT and stability analysis
  Lukas Wittmann         : regularized MP2, r2SCAN double-hybrids, wr2SCAN        
                                                                         
We gratefully acknowledge several colleagues who have allowed us to      
interface, adapt or use parts of their codes:                            
  Ed Valeev, F. Pavosevic, A. Kumar             : LibInt (2-el integral package), F12 methods 
  Garnet Chan, S. Sharma, J. Yang, R. Olivares  : DMRG                   
  Ulf Ekstrom                                   : XCFun DFT Library      
  Mihaly Kallay                                 : mrcc  (arbitrary order and MRCC methods)
  Frank Weinhold                                : gennbo (NPA and NBO analysis)           
  Simon Mueller                                 : openCOSMO-RS                            
  Christopher J. Cramer and Donald G. Truhlar   : smd solvation model                     
  S Lehtola, MJT Oliveira, MAL Marques          : LibXC Library                           
  Liviu Ungur et al                             : ANISO software                          


 Your calculation uses the libint2 library for the computation of 2-el integrals
 For citations please refer to: http://libint.valeyev.net

 Your ORCA version has been built with support for libXC version: 7.0.0
 For citations please refer to: https://libxc.gitlab.io

 This ORCA versions uses:
   CBLAS   interface :  Fast vector & matrix operations
   LAPACKE interface :  Fast linear algebra routines
   Shared memory     :  Shared parallel matrices


  ***********************************
  * Starting time: Tue Jul 21 12:13:06 2026
  * Host name:     DESKTOP-19Q153E
  * Process ID:    31188
  * Working dir.:  C:\Users\ysm04\Documents\etc\uv_vis\calculations\02_tddft_orca\diketo\diketo_c000\b3lyp_def2svp\none
  ***********************************

NOTE: MaxCore=2500 MB was set to SCF,MP2,MDCI,CIPSI,MRCI,RASCI and CIS
      => If you want to overwrite this, your respective input block should be placed after the MaxCore statement
================================================================================

----- Orbital basis set information -----
Your calculation utilizes the basis: def2-SVP
   F. Weigend and R. Ahlrichs, Phys. Chem. Chem. Phys. 7, 3297 (2005).

----- AuxJ basis set information -----
Your calculation utilizes the auxiliary basis: def2/J
   H-Rn: F. Weigend, Phys. Chem. Chem. Phys. 8, 1057 (2006).
   Fr-Lr: K. Eichkorn, F. Weigend, O. Treutler, R. Ahlrichs; Theor. Chem. Acc. 97, 119 (1997).

================================================================================
                                        WARNINGS
                       Please study these warnings very carefully!
================================================================================


WARNING: CIS/ROCIS methods need fully converged wavefunctions
  ===> : Setting SCFConvForced true
         You can overwrite this default with %scf ConvForced false 


================================================================================
                                       INPUT FILE
================================================================================
NAME = td.inp
|  1> # diketo / diketo_c000 / b3lyp_def2svp / solvent=none
|  2> ! B3LYP def2-SVP RIJCOSX def2/J TightSCF
|  3> %pal nprocs 4 end
|  4> %maxcore 2500
|  5> %scf
|  6>   MaxIter 300
|  7> end
|  8> %tddft
|  9>   nroots 18
| 10>   tda    true
| 11>   maxdim 5
| 12> end
| 13> * xyz 0 1
| 14> C     -4.9413530300     1.9642762800     0.2464523000
| 15> C     -4.4466744100     0.6180059200    -0.2908116600
| 16> C     -5.4995805200    -0.4497759400     0.0432756300
| 17> C     -4.2894274700     0.7361662300    -1.8146499100
| 18> C     -3.1154474700     0.2006997400     0.3099106600
| 19> C     -2.5272991400    -1.0017688000    -0.0853234100
| 20> C     -1.3199500500    -1.4289200400     0.4264477200
| 21> C     -0.6405004700    -0.6509156800     1.3667304000
| 22> C     -1.2262151300     0.5527597400     1.7685430800
| 23> C     -2.4354853500     0.9686723400     1.2519907900
| 24> C      0.6587575500    -1.0108459400     1.9522949500
| 25> O      1.2021993300    -0.3123034400     2.7916259900
| 26> C      1.3312830700    -2.2868455300     1.4686532100
| 27> C      1.8332935000    -2.1379243300     0.0379549900
| 28> O      1.2884858100    -2.7500269400    -0.8663543400
| 29> C      2.9625500800    -1.2350109100    -0.2055467100
| 30> C      3.3611731200    -1.0347698700    -1.5363529200
| 31> C      4.3938487500    -0.1883993800    -1.8484145400
| 32> C      5.0758679800     0.4971675300    -0.8339388500
| 33> O      6.0719292400     1.3112344200    -1.2405702900
| 34> C      6.7963953900     2.0553920600    -0.2774771400
| 35> C      4.6924672900     0.2995015600     0.4930240300
| 36> C      3.6531272300    -0.5556999500     0.7997616700
| 37> H     -5.0959409200     1.9240760800     1.3220193400
| 38> H     -4.2386425000     2.7608564300     0.0139852300
| 39> H     -5.8929177600     2.2097294300    -0.2199523400
| 40> H     -5.2337689500    -1.4153700200    -0.3772051900
| 41> H     -6.4655051300    -0.1558807300    -0.3608008000
| 42> H     -5.5946248300    -0.5602174400     1.1215291500
| 43> H     -3.5173821600     1.4630190400    -2.0587264500
| 44> H     -4.0152054700    -0.2151289800    -2.2614782000
| 45> H     -5.2260951700     1.0643413700    -2.2591885800
| 46> H     -3.0202152200    -1.6279450500    -0.8126803000
| 47> H     -0.9094246700    -2.3617903200     0.0756940600
| 48> H     -0.7037298500     1.1572367800     2.4958177500
| 49> H     -2.8414866600     1.9057750900     1.5941997000
| 50> H      2.1688458300    -2.5049088400     2.1316098900
| 51> H      0.6191784300    -3.1118396900     1.4942467700
| 52> H      2.8275677300    -1.5616525800    -2.3132094400
| 53> H      4.6999342100    -0.0288734900    -2.8700197500
| 54> H      7.5171754800     2.6377042300    -0.8480602900
| 55> H      6.1384667600     2.7282788800     0.2784666800
| 56> H      7.3243882900     1.3957848800     0.4159703700
| 57> H      5.1990350100     0.8099215800     1.2959525700
| 58> H      3.3809022600    -0.6737857500     1.8358656100
| 59> *
| 60> 
| 61>                          ****END OF INPUT****
================================================================================

                       ****************************
                       * Single Point Calculation *
                       ****************************

---------------------------------
CARTESIAN COORDINATES (ANGSTROEM)
---------------------------------
  C     -4.941353    1.964276    0.246452
  C     -4.446674    0.618006   -0.290812
  C     -5.499581   -0.449776    0.043276
  C     -4.289427    0.736166   -1.814650
  C     -3.115447    0.200700    0.309911
  C     -2.527299   -1.001769   -0.085323
  C     -1.319950   -1.428920    0.426448
  C     -0.640500   -0.650916    1.366730
  C     -1.226215    0.552760    1.768543
  C     -2.435485    0.968672    1.251991
  C      0.658758   -1.010846    1.952295
  O      1.202199   -0.312303    2.791626
  C      1.331283   -2.286846    1.468653
  C      1.833293   -2.137924    0.037955
  O      1.288486   -2.750027   -0.866354
  C      2.962550   -1.235011   -0.205547
  C      3.361173   -1.034770   -1.536353
  C      4.393849   -0.188399   -1.848415
  C      5.075868    0.497168   -0.833939
  O      6.071929    1.311234   -1.240570
  C      6.796395    2.055392   -0.277477
  C      4.692467    0.299502    0.493024
  C      3.653127   -0.555700    0.799762
  H     -5.095941    1.924076    1.322019
  H     -4.238643    2.760856    0.013985
  H     -5.892918    2.209729   -0.219952
  H     -5.233769   -1.415370   -0.377205
  H     -6.465505   -0.155881   -0.360801
  H     -5.594625   -0.560217    1.121529
  H     -3.517382    1.463019   -2.058726
  H     -4.015205   -0.215129   -2.261478
  H     -5.226095    1.064341   -2.259189
  H     -3.020215   -1.627945   -0.812680
  H     -0.909425   -2.361790    0.075694
  H     -0.703730    1.157237    2.495818
  H     -2.841487    1.905775    1.594200
  H      2.168846   -2.504909    2.131610
  H      0.619178   -3.111840    1.494247
  H      2.827568   -1.561653   -2.313209
  H      4.699934   -0.028873   -2.870020
  H      7.517175    2.637704   -0.848060
  H      6.138467    2.728279    0.278467
  H      7.324388    1.395785    0.415970
  H      5.199035    0.809922    1.295953
  H      3.380902   -0.673786    1.835866

----------------------------
CARTESIAN COORDINATES (A.U.)
----------------------------
  NO LB      ZA    FRAG     MASS         X           Y           Z
   0 C     6.0000    0    12.011   -9.337804    3.711944    0.465727
   1 C     6.0000    0    12.011   -8.402997    1.167862   -0.549554
   2 C     6.0000    0    12.011  -10.392701   -0.849953    0.081779
   3 C     6.0000    0    12.011   -8.105843    1.391153   -3.429191
   4 C     6.0000    0    12.011   -5.887343    0.379268    0.585646
   5 C     6.0000    0    12.011   -4.775903   -1.893069   -0.161238
   6 C     6.0000    0    12.011   -2.494344   -2.700268    0.805869
   7 C     6.0000    0    12.011   -1.210370   -1.230052    2.582746
   8 C     6.0000    0    12.011   -2.317211    1.044565    3.342062
   9 C     6.0000    0    12.011   -4.602400    1.830525    2.365920
  10 C     6.0000    0    12.011    1.244871   -1.910222    3.689303
  11 O     8.0000    0    15.999    2.271827   -0.590168    5.275409
  12 C     6.0000    0    12.011    2.515760   -4.321512    2.775352
  13 C     6.0000    0    12.011    3.464423   -4.040091    0.071725
  14 O     8.0000    0    15.999    2.434885   -5.196798   -1.637172
  15 C     6.0000    0    12.011    5.598408   -2.333832   -0.388427
  16 C     6.0000    0    12.011    6.351697   -1.955432   -2.903286
  17 C     6.0000    0    12.011    8.303171   -0.356023   -3.492997
  18 C     6.0000    0    12.011    9.592000    0.939510   -1.575916
  19 O     8.0000    0    15.999   11.474283    2.477874   -2.344338
  20 C     6.0000    0    12.011   12.843326    3.884128   -0.524356
  21 C     6.0000    0    12.011    8.867478    0.565976    0.931680
  22 C     6.0000    0    12.011    6.903410   -1.050121    1.511331
  23 H     1.0000    0     1.008   -9.629933    3.635977    2.498254
  24 H     1.0000    0     1.008   -8.009874    5.217263    0.026428
  25 H     1.0000    0     1.008  -11.136001    4.175783   -0.415650
  26 H     1.0000    0     1.008   -9.890390   -2.674662   -0.712815
  27 H     1.0000    0     1.008  -12.218034   -0.294572   -0.681815
  28 H     1.0000    0     1.008  -10.572309   -1.058658    2.119383
  29 H     1.0000    0     1.008   -6.646889    2.764705   -3.890429
  30 H     1.0000    0     1.008   -7.587639   -0.406535   -4.273574
  31 H     1.0000    0     1.008   -9.875889    2.011314   -4.269248
  32 H     1.0000    0     1.008   -5.707380   -3.076370   -1.535743
  33 H     1.0000    0     1.008   -1.718564   -4.463137    0.143041
  34 H     1.0000    0     1.008   -1.329857    2.186861    4.716412
  35 H     1.0000    0     1.008   -5.369632    3.601393    3.012601
  36 H     1.0000    0     1.008    4.098525   -4.733592    4.028159
  37 H     1.0000    0     1.008    1.170078   -5.880525    2.823717
  38 H     1.0000    0     1.008    5.343329   -2.951096   -4.371332
  39 H     1.0000    0     1.008    8.881589   -0.054563   -5.423551
  40 H     1.0000    0     1.008   14.205403    4.984539   -1.602602
  41 H     1.0000    0     1.008   11.600021    5.155700    0.526226
  42 H     1.0000    0     1.008   13.841088    2.637651    0.786070
  43 H     1.0000    0     1.008    9.824752    1.530530    2.448995
  44 H     1.0000    0     1.008    6.388979   -1.273271    3.469283

--------------------------------
INTERNAL COORDINATES (ANGSTROEM)
--------------------------------
 C      0   0   0     0.000000000000     0.00000000     0.00000000
 C      1   0   0     1.531601574175     0.00000000     0.00000000
 C      2   1   0     1.536354026375   108.25717069     0.00000000
 C      2   1   3     1.536480221533   108.26162994   119.01488772
 C      2   1   3     1.518939406097   112.69504321   239.50811284
 C      5   2   1     1.395728848258   119.60497837   180.37190722
 C      6   5   2     1.379151803269   122.04963100   179.94723523
 C      7   6   5     1.396808517389   120.20666545   359.72691838
 C      8   7   6     1.397622842350   117.99371349     0.40656180
 C      9   8   7     1.379182375222   121.29794154   359.72257828
 C      8   7   6     1.469866332975   124.17717938   181.01082664
 O     11   8   7     1.219740622945   121.85157908   181.52126289
 C     11   8   7     1.521306958310   118.00167811     2.25992728
 C     13  11   8     1.523512189761   111.23682894    70.34247132
 O     14  13  11     1.220352567325   119.98322492   249.86596181
 C     14  13  11     1.466208083934   118.03021705    69.10336258
 C     16  14  13     1.403581836123   117.64916944   184.16307473
 C     17  16  14     1.371183582828   121.18056531   178.90062162
 C     18  17  16     1.401539561974   120.24422206     0.03391059
 O     19  18  17     1.349144937753   115.86540363   180.31034533
 C     20  19  18     1.416393381530   119.32104771   179.04215260
 C     19  18  17     1.395313014949   119.03633880     0.32246947
 C     22  19  18     1.380465632611   120.39463518   359.77337833
 H      1   2   3     1.087362832429   111.12483149    59.38497518
 H      1   2   3     1.087374343536   111.11300932   181.31677354
 H      1   2   3     1.087775699507   109.29755008   300.35691577
 H      3   2   1     1.086200643558   111.46601041   175.95249169
 H      3   2   1     1.087502877213   109.88222526    55.90439975
 H      3   2   1     1.088053950491   110.23718482   296.31379590
 H      4   2   1     1.088091138405   110.27086048    64.18769534
 H      4   2   1     1.086193262084   111.49815783   184.50669643
 H      4   2   1     1.087501692809   109.90530717   304.57715983
 H      6   5   2     1.078939758938   119.89338815   359.92518203
 H      7   6   5     1.077871131877   118.73266680   180.63538958
 H      9   8   7     1.080422049630   118.21002116   179.99112097
 H     10   9   8     1.077081968033   118.28663454   180.14047184
 H     13  11   8     1.090217658848   108.30449449   190.99912059
 H     13  11   8     1.090120824797   109.78677205   310.69189248
 H     17  16  14     1.079743559833   118.17768928   359.28791930
 H     18  17  16     1.078338547722   121.37929494   180.27126810
 H     21  20  19     1.088198755988   105.27209756   181.09300898
 H     21  20  19     1.093032609623   111.18643812   299.73515483
 H     21  20  19     1.093035947937   111.18650035    62.47554627
 H     22  19  18     1.077883895468   120.81065727   179.82792874
 H     23  22  19     1.077757887903   118.14184961   180.60183870

---------------------------
INTERNAL COORDINATES (A.U.)
---------------------------
 C      0   0   0     0.000000000000     0.00000000     0.00000000
 C      1   0   0     2.894307521473     0.00000000     0.00000000
 C      2   1   0     2.903288354597   108.25717069     0.00000000
 C      2   1   3     2.903526828884   108.26162994   119.01488772
 C      2   1   3     2.870379491544   112.69504321   239.50811284
 C      5   2   1     2.637545280421   119.60497837   180.37190722
 C      6   5   2     2.606219205281   122.04963100   179.94723523
 C      7   6   5     2.639585559393   120.20666545   359.72691838
 C      8   7   6     2.641124410555   117.99371349     0.40656180
 C      9   8   7     2.606276977900   121.29794154   359.72257828
 C      8   7   6     2.777644822795   124.17717938   181.01082664
 O     11   8   7     2.304975731785   121.85157908   181.52126289
 C     11   8   7     2.874853516834   118.00167811     2.25992728
 C     13  11   8     2.879020800338   111.23682894    70.34247132
 O     14  13  11     2.306132139072   119.98322492   249.86596181
 C     14  13  11     2.770731733976   118.03021705    69.10336258
 C     16  14  13     2.652385276818   117.64916944   184.16307473
 C     17  16  14     2.591161450873   121.18056531   178.90062162
 C     18  17  16     2.648525937986   120.24422206     0.03391059
 O     19  18  17     2.549514447319   115.86540363   180.31034533
 C     20  19  18     2.676595588991   119.32104771   179.04215260
 C     19  18  17     2.636759469350   119.03633880     0.32246947
 C     22  19  18     2.608701982925   120.39463518   359.77337833
 H      1   2   3     2.054817961497   111.12483149    59.38497518
 H      1   2   3     2.054839714336   111.11300932   181.31677354
 H      1   2   3     2.055598167203   109.29755008   300.35691577
 H      3   2   1     2.052621742813   111.46601041   175.95249169
 H      3   2   1     2.055082607784   109.88222526    55.90439975
 H      3   2   1     2.056123985358   110.23718482   296.31379590
 H      4   2   1     2.056194260333   110.27086048    64.18769534
 H      4   2   1     2.052607793850   111.49815783   184.50669643
 H      4   2   1     2.055080369585   109.90530717   304.57715983
 H      6   5   2     2.038900659392   119.89338815   359.92518203
 H      7   6   5     2.036881246908   118.73266680   180.63538958
 H      9   8   7     2.041701782851   118.21002116   179.99112097
 H     10   9   8     2.035389943368   118.28663454   180.14047184
 H     13  11   8     2.060212801587   108.30449449   190.99912059
 H     13  11   8     2.060029811752   109.78677205   310.69189248
 H     17  16  14     2.040419622949   118.17768928   359.28791930
 H     18  17  16     2.037764534845   121.37929494   180.27126810
 H     21  20  19     2.056397628092   105.27209756   181.09300898
 H     21  20  19     2.065532287633   111.18643812   299.73515483
 H     21  20  19     2.065538596132   111.18650035    62.47554627
 H     22  19  18     2.036905366599   120.81065727   179.82792874
 H     23  22  19     2.036667246810   118.14184961   180.60183870

---------------------
BASIS SET INFORMATION
---------------------
There are 3 groups of distinct atoms

 Group   1 Type C   : 7s4p1d contracted to 3s2p1d pattern {511/31/1}
 Group   2 Type O   : 7s4p1d contracted to 3s2p1d pattern {511/31/1}
 Group   3 Type H   : 4s1p contracted to 2s1p pattern {31/1}

Atom   0C    basis set group =>   1
Atom   1C    basis set group =>   1
Atom   2C    basis set group =>   1
Atom   3C    basis set group =>   1
Atom   4C    basis set group =>   1
Atom   5C    basis set group =>   1
Atom   6C    basis set group =>   1
Atom   7C    basis set group =>   1
Atom   8C    basis set group =>   1
Atom   9C    basis set group =>   1
Atom  10C    basis set group =>   1
Atom  11O    basis set group =>   2
Atom  12C    basis set group =>   1
Atom  13C    basis set group =>   1
Atom  14O    basis set group =>   2
Atom  15C    basis set group =>   1
Atom  16C    basis set group =>   1
Atom  17C    basis set group =>   1
Atom  18C    basis set group =>   1
Atom  19O    basis set group =>   2
Atom  20C    basis set group =>   1
Atom  21C    basis set group =>   1
Atom  22C    basis set group =>   1
Atom  23H    basis set group =>   3
Atom  24H    basis set group =>   3
Atom  25H    basis set group =>   3
Atom  26H    basis set group =>   3
Atom  27H    basis set group =>   3
Atom  28H    basis set group =>   3
Atom  29H    basis set group =>   3
Atom  30H    basis set group =>   3
Atom  31H    basis set group =>   3
Atom  32H    basis set group =>   3
Atom  33H    basis set group =>   3
Atom  34H    basis set group =>   3
Atom  35H    basis set group =>   3
Atom  36H    basis set group =>   3
Atom  37H    basis set group =>   3
Atom  38H    basis set group =>   3
Atom  39H    basis set group =>   3
Atom  40H    basis set group =>   3
Atom  41H    basis set group =>   3
Atom  42H    basis set group =>   3
Atom  43H    basis set group =>   3
Atom  44H    basis set group =>   3
---------------------------------
AUXILIARY/J BASIS SET INFORMATION
---------------------------------
There are 3 groups of distinct atoms

 Group   1 Type C   : 12s5p4d2f1g contracted to 6s4p3d1f1g pattern {711111/2111/211/2/1}
 Group   2 Type O   : 12s5p4d2f1g contracted to 6s4p3d1f1g pattern {711111/2111/211/2/1}
 Group   3 Type H   : 5s2p1d contracted to 3s1p1d pattern {311/2/1}

Atom   0C    basis set group =>   1
Atom   1C    basis set group =>   1
Atom   2C    basis set group =>   1
Atom   3C    basis set group =>   1
Atom   4C    basis set group =>   1
Atom   5C    basis set group =>   1
Atom   6C    basis set group =>   1
Atom   7C    basis set group =>   1
Atom   8C    basis set group =>   1
Atom   9C    basis set group =>   1
Atom  10C    basis set group =>   1
Atom  11O    basis set group =>   2
Atom  12C    basis set group =>   1
Atom  13C    basis set group =>   1
Atom  14O    basis set group =>   2
Atom  15C    basis set group =>   1
Atom  16C    basis set group =>   1
Atom  17C    basis set group =>   1
Atom  18C    basis set group =>   1
Atom  19O    basis set group =>   2
Atom  20C    basis set group =>   1
Atom  21C    basis set group =>   1
Atom  22C    basis set group =>   1
Atom  23H    basis set group =>   3
Atom  24H    basis set group =>   3
Atom  25H    basis set group =>   3
Atom  26H    basis set group =>   3
Atom  27H    basis set group =>   3
Atom  28H    basis set group =>   3
Atom  29H    basis set group =>   3
Atom  30H    basis set group =>   3
Atom  31H    basis set group =>   3
Atom  32H    basis set group =>   3
Atom  33H    basis set group =>   3
Atom  34H    basis set group =>   3
Atom  35H    basis set group =>   3
Atom  36H    basis set group =>   3
Atom  37H    basis set group =>   3
Atom  38H    basis set group =>   3
Atom  39H    basis set group =>   3
Atom  40H    basis set group =>   3
Atom  41H    basis set group =>   3
Atom  42H    basis set group =>   3
Atom  43H    basis set group =>   3
Atom  44H    basis set group =>   3


           ************************************************************
           *        Program running with 4 parallel MPI-processes     *
           *              working on a common directory               *
           ************************************************************
------------------------------------------------------------------------------
                             ORCA STARTUP CALCULATIONS
                           -- RI-GTO INTEGRALS CHOSEN --
------------------------------------------------------------------------------
------------------------------------------------------------------------------
                   ___                                                        
                  /   \      - P O W E R E D   B Y -                         
                 /     \                                                     
                 |  |  |   _    _      __       _____    __    __             
                 |  |  |  | |  | |    /  \     |  _  \  |  |  /  |          
                  \  \/   | |  | |   /    \    | | | |  |  | /  /          
                 / \  \   | |__| |  /  /\  \   | |_| |  |  |/  /          
                |  |  |   |  __  | /  /__\  \  |    /   |      \           
                |  |  |   | |  | | |   __   |  |    \   |  |\   \          
                \     /   | |  | | |  |  |  |  | |\  \  |  | \   \       
                 \___/    |_|  |_| |__|  |__|  |_| \__\ |__|  \__/        
                                                                              
                      - O R C A' S   B I G   F R I E N D -                    
                                      &                                       
                       - I N T E G R A L  F E E D E R -                       
                                                                              
 v1 FN, 2020, v2 2021, v3 2022-2024                                           
------------------------------------------------------------------------------


----------------------
SHARK INTEGRAL PACKAGE
----------------------

Number of atoms                             ...     45
Number of basis functions                   ...    432
Number of shells                            ...    204
Maximum angular momentum                    ...      2
Integral batch strategy                     ... SHARK/LIBINT Hybrid
RI-J (if used) integral strategy            ... SPLIT-RIJ (Revised 2003 algorithm where possible)
Printlevel                                  ...      1
Contraction scheme used                     ... SEGMENTED contraction
Prescreening option                         ... SCHWARTZ
   Thresh                                   ... 2.500e-11
   Tcut                                     ... 2.500e-12
   Tpresel                                  ... 2.500e-12 
Coulomb Range Separation                    ... NOT USED
Exchange Range Separation                   ... NOT USED
Multipole approximations                    ... NOT USED
Finite Nucleus Model                        ... NOT USED
CABS basis                                  ... NOT available
Auxiliary Coulomb fitting basis             ... AVAILABLE
   # of basis functions in Aux-J            ...   1369
   # of shells in Aux-J                     ...    455
   Maximum angular momentum in Aux-J        ...      4
Auxiliary J/K fitting basis                 ... NOT available
Auxiliary Correlation fitting basis         ... NOT available
Auxiliary 'external' fitting basis          ... NOT available

Checking pre-screening integrals            ... done (  0.0 sec) Dimension = 204
   => SHARK Basis and OBASIS are compatible. Storing Pre-screening
Shell pair information
Shell pair cut-off parameter TPreSel        ...   2.5e-12
Total number of shell pairs                 ...     20910
Shell pairs after pre-screening             ...     13586
Total number of primitive shell pairs       ...     75056
Primitive shell pairs kept                  ...     31343
          la=0 lb=0:   4313 shell pairs
          la=1 lb=0:   5094 shell pairs
          la=1 lb=1:   1545 shell pairs
          la=2 lb=0:   1566 shell pairs
          la=2 lb=1:    923 shell pairs
          la=2 lb=2:    145 shell pairs

Checking whether 4 symmetric matrices of dimension 432 fit in memory
:Max Core in MB      =   2500.00
 MB in use           =     16.59
 MB left             =   2483.41
 MB needed           =      2.85
 Data fit in memory  = YES
Calculating RI/J V-Matrix + Cholesky decomp.... done (  0.1 sec)
Calculating Nuclear repulsion               ... done (  0.0 sec) ENN=   1816.148999229440 Eh

Diagonalization of the overlap matrix:
Smallest eigenvalue                        ... 2.415e-04
Time for diagonalization                   ...    0.022 sec
Threshold for overlap eigenvalues          ... 1.000e-07
Number of eigenvalues below threshold      ... 0
Time for construction of square roots      ...    0.016 sec
Total time needed                          ...    0.041 sec

-------------------
DFT GRID GENERATION
-------------------

General Integration Accuracy     IntAcc      ... 4.388
Radial Grid Type                 RadialGrid  ... OptM3 with GC (2021)
Angular Grid (max. ang.)         AngularGrid ... 4 (Lebedev-302)
Angular grid pruning method      GridPruning ... 4 (adaptive)
Weight generation scheme         WeightScheme... mBecke (2022)
Basis function cutoff            BFCut       ... 1.0000e-11
Integration weight cutoff        WCut        ... 1.0000e-14
Partially contracted basis set               ... off
Rotationally invariant grid construction     ... off
Angular grids for H and He will be reduced by one unit

Total number of grid points                  ...   207356
Total number of batches                      ...     3262
Average number of points per batch           ...       63
Average number of grid points per atom       ...     4608

--------------------
COSX GRID GENERATION
--------------------

GRIDX 1
-------
General Integration Accuracy     IntAcc      ... 3.816
Radial Grid Type                 RadialGrid  ... OptM3 with GC (2021)
Angular Grid (max. ang.)         AngularGrid ... 1 (Lebedev-50)
Angular grid pruning method      GridPruning ... 4 (adaptive)
Weight generation scheme         WeightScheme... mBecke (2022)
Basis function cutoff            BFCut       ... 1.0000e-11
Integration weight cutoff        WCut        ... 1.0000e-14
Partially contracted basis set               ... on
Rotationally invariant grid construction     ... off
Angular grids for H and He will be reduced by one unit

Total number of grid points                  ...    26315
Total number of batches                      ...      231
Average number of points per batch           ...      113
Average number of grid points per atom       ...      585
UseSFitting                                  ... on

GRIDX 2
-------
General Integration Accuracy     IntAcc      ... 4.020
Radial Grid Type                 RadialGrid  ... OptM3 with GC (2021)
Angular Grid (max. ang.)         AngularGrid ... 2 (Lebedev-110)
Angular grid pruning method      GridPruning ... 4 (adaptive)
Weight generation scheme         WeightScheme... mBecke (2022)
Basis function cutoff            BFCut       ... 1.0000e-11
Integration weight cutoff        WCut        ... 1.0000e-14
Partially contracted basis set               ... on
Rotationally invariant grid construction     ... off
Angular grids for H and He will be reduced by one unit

Total number of grid points                  ...    56460
Total number of batches                      ...      468
Average number of points per batch           ...      120
Average number of grid points per atom       ...     1255
UseSFitting                                  ... on

GRIDX 3
-------
General Integration Accuracy     IntAcc      ... 4.338
Radial Grid Type                 RadialGrid  ... OptM3 with GC (2021)
Angular Grid (max. ang.)         AngularGrid ... 3 (Lebedev-194)
Angular grid pruning method      GridPruning ... 4 (adaptive)
Weight generation scheme         WeightScheme... mBecke (2022)
Basis function cutoff            BFCut       ... 1.0000e-11
Integration weight cutoff        WCut        ... 1.0000e-14
Partially contracted basis set               ... on
Rotationally invariant grid construction     ... off
Angular grids for H and He will be reduced by one unit

Total number of grid points                  ...   123347
Total number of batches                      ...      989
Average number of points per batch           ...      124
Average number of grid points per atom       ...     2741
UseSFitting                                  ... on
Grids setup in   3.9 sec
Initializing property integral containers    ... done (  0.1 sec)

SHARK setup successfully completed in   4.5 seconds

Maximum memory used throughout the entire STARTUP-calculation: 59.4 MB


           ************************************************************
           *        Program running with 4 parallel MPI-processes     *
           *              working on a common directory               *
           ************************************************************
-------------------------------------------------------------------------------
                                 ORCA GUESS
                   Start orbitals & Density for SCF / CASSCF
-------------------------------------------------------------------------------

------------
SCF SETTINGS
------------
Hamiltonian:
 Density Functional     Method          .... DFT(GTOs)
 Exchange Functional    Exchange        .... B88
   X-Alpha parameter    XAlpha          ....  0.666667
   Becke's b parameter  XBeta           ....  0.004200
 Correlation Functional Correlation     .... LYP
 LDA part of GGA corr.  LDAOpt          .... VWN-5
 Gradients option       PostSCFGGA      .... off
 Hybrid DFT is turned on
   Fraction HF Exchange ScalHFX         ....  0.200000
   Scaling of DF-GGA-X  ScalDFX         ....  0.720000
   Scaling of DF-GGA-C  ScalDFC         ....  0.810000
   Scaling of DF-LDA-C  ScalLDAC        ....  1.000000
   Perturbative correction              ....  0.000000
   NL short-range parameter             ....  4.800000
 RI-approximation to the Coulomb term is turned on
   Number of AuxJ basis functions       .... 1369
   RIJ-COSX (HFX calculated with COS-X)).... on


General Settings:
 Integral files         IntName         .... td
 Hartree-Fock type      HFTyp           .... RHF
 Total Charge           Charge          ....    0
 Multiplicity           Mult            ....    1
 Number of Electrons    NEL             ....  166
 Basis Dimension        Dim             ....  432
 Nuclear Repulsion      ENuc            ....   1816.1489992294 Eh

Convergence Acceleration:
 AO-DIIS                CNVDIIS         .... on
   Start iteration      DIISMaxIt       ....    12
   Startup error        DIISStart       ....  0.200000
   # of expansion vecs  DIISMaxEq       ....     5
   Bias factor          DIISBfac        ....   1.050
   Max. coefficient     DIISMaxC        ....  10.000
 MO-DIIS                CNVKDIIS        .... off
 Trust-Rad. Augm. Hess. CNVTRAH         .... auto
   Auto Start mean grad. ratio tolernc. ....  1.125000
   Auto Start start iteration           ....    50
   Auto Start num. interpolation iter.  ....    10
   Max. Number of Micro iterations      ....    24
   Max. Number of Macro iterations      .... Maxiter - #DIIS iter
   Number of Davidson start vectors     ....     2
   Converg. threshold    (grad. norm)   ....   1.000e-05
   Grad. Scal. Fac. for Micro threshold ....   0.100
   Minimum threshold for Micro iter.    ....   1.000e-02
   NR start threshold (gradient norm)   ....   1.000e-04
   Initial trust radius                 ....   0.400
   Minimum AH scaling param. (alpha)    ....   1.000
   Maximum AH scaling param. (alpha)    .... 1000.000
   Quad. conv. algorithm                .... NR
   White noise on init. David. guess    .... on
   Maximum white noise                  ....   0.010
   Pseudo random numbers                .... off
   Inactive MOs                         .... canonical
   Orbital update algorithm             .... Taylor
   Preconditioner                       .... Diag
   Full preconditioner red. dimension   ....   250
 SOSCF                 CNVSOSCF           .... on
   Start iteration     SOSCFMaxIt         ....   150
   Startup grad/error  SOSCFStart         ....  0.003300
   Hessian update      SOSCFHessUp        .... L-BFGS
   Autom. constraints  SOSCFAutoConstrain .... off
 Level Shifting         CNVShift        .... on
   Level shift para.    LevelShift      ....    0.2500
   Turn off err/grad.   ShiftErr        ....    0.0010
 Zerner damping         CNVZerner       .... off
 Static damping         CNVDamp         .... on
   Fraction old density DampFac         ....    0.7000
   Max. Damping (<1)    DampMax         ....    0.9800
   Min. Damping (>=0)   DampMin         ....    0.0000
   Turn off err/grad.   DampErr         ....    0.1000

SCF Procedure:
 Maximum # iterations   MaxIter         ....   300
 SCF integral mode      SCFMode         .... Direct
   Integral package                     .... SHARK and LIBINT hybrid scheme
 Reset frequency        DirectResetFreq ....    20
 Integral Threshold     Thresh          ....  2.500e-11 Eh
 Primitive CutOff       TCut            ....  2.500e-12 Eh

Convergence Tolerance:
 Convergence Check Mode ConvCheckMode   .... Total+1el-Energy
 Convergence forced     ConvForced      .... 1
 Energy Change          TolE            ....  1.000e-08 Eh
 1-El. energy change                    ....  1.000e-05 Eh
 Orbital Gradient       TolG            ....  1.000e-05
 Orbital Rotation angle TolX            ....  1.000e-05
 DIIS Error             TolErr          ....  5.000e-07

------------------------------
INITIAL GUESS: MODEL POTENTIAL
------------------------------
Loading Hartree-Fock densities                     ... done
Calculating cut-offs                               ... done
Initializing the effective Hamiltonian             ... done
Setting up the integral package (SHARK)            ... done
Starting the Coulomb interaction                   ... done (   0.5 sec)
Making the grid                                    ... done (   0.6 sec)
Mapping shells                                     ... done
Starting the XC term evaluation                    ... done (   0.5 sec)
  promolecular density results
     # of electrons  =    165.992290691
     EX              =   -134.035724193
     EC              =     -5.603386195
     EX+EC           =   -139.639110388
Transforming the Hamiltonian                       ... done (   0.0 sec)
Diagonalizing the Hamiltonian                      ... done (   0.0 sec)
Back transforming the eigenvectors                 ... done (   0.0 sec)
Now organizing SCF variables                       ... done
                      ------------------
                      INITIAL GUESS DONE (   1.7 sec)
                      ------------------
             **** ENERGY FILE WAS UPDATED (td.en.tmp) ****
Finished Guess after   2.0 sec
Maximum memory used throughout the entire GUESS-calculation: 23.1 MB


           ************************************************************
           *        Program running with 4 parallel MPI-processes     *
           *              working on a common directory               *
           ************************************************************

-------------------------------------------------------------------------------------------
                                      ORCA LEAN-SCF
                              memory conserving SCF solver
-------------------------------------------------------------------------------------------

----------------------------------------D-I-I-S--------------------------------------------
Iteration    Energy (Eh)           Delta-E    RMSDP     MaxDP     DIISErr   Damp  Time(sec)
-------------------------------------------------------------------------------------------
               ***  Starting incremental Fock matrix formation  ***
    1    -999.1354204094541274     0.00e+00  5.29e-03  8.98e-02  2.42e-01  0.700  12.2
    2    -999.4017114842376941    -2.66e-01  3.59e-03  6.83e-02  9.02e-02  0.700   6.0
                               ***Turning on AO-DIIS***
    3    -999.5080881012504506    -1.06e-01  1.58e-03  2.20e-02  3.70e-02  0.700   5.9
    4    -999.5726010886201038    -6.45e-02  2.87e-03  3.68e-02  1.77e-02  0.000   5.6
    5    -999.7125410000094234    -1.40e-01  4.72e-04  1.18e-02  7.17e-03  0.000   6.1
                              *** Initializing SOSCF ***
---------------------------------------S-O-S-C-F--------------------------------------
Iteration    Energy (Eh)           Delta-E    RMSDP     MaxDP     MaxGrad    Time(sec)
--------------------------------------------------------------------------------------
    6    -999.7134840097655797    -9.43e-04  1.68e-04  4.63e-03  1.36e-03     5.3
               *** Restarting incremental Fock matrix formation ***
    7    -999.7135538992502006    -6.99e-05  1.15e-04  4.15e-03  2.70e-04    12.2
    8    -999.7135514553210669     2.44e-06  4.40e-05  8.22e-04  4.64e-04     8.1
    9    -999.7135616581322211    -1.02e-05  2.86e-05  8.35e-04  9.81e-05     7.0
   10    -999.7135614804965371     1.78e-07  1.34e-05  3.13e-04  7.38e-05     6.7
   11    -999.7135623522203787    -8.72e-07  3.58e-06  7.36e-05  1.20e-05     6.0
   12    -999.7135623431172462     9.10e-09  2.23e-06  5.49e-05  2.14e-05     4.8
                 **** Energy Check signals convergence ****

               *****************************************************
               *                     SUCCESS                       *
               *           SCF CONVERGED AFTER  12 CYCLES          *
               *****************************************************

Recomputing exchange energy using gridx3       ... done (   19.793 sec)
Old exchange energy                            :    -27.233384997 Eh
New exchange energy                            :    -27.233395523 Eh
Exchange energy change after final integration :     -0.000010526 Eh
Total energy after final integration           :   -999.713572882 Eh
             **** ENERGY FILE WAS UPDATED (td.en.tmp) ****

----------------
TOTAL SCF ENERGY
----------------

Total Energy       :       -999.71357288213210 Eh          -27203.58932 eV

Components:
Nuclear Repulsion  :       1816.14899922943960 Eh           49419.92673 eV
Electronic Energy  :      -2815.86256158605647 Eh          -76623.51577 eV
One Electron Energy:      -4965.08695629486647 Eh         -135106.88478 eV
Two Electron Energy:       2149.22439470881000 Eh           58483.36902 eV

Virial components:
Potential Energy   :      -1990.15739535574949 Eh          -54154.93591 eV
Kinetic Energy     :        990.44382247361750 Eh           26951.34659 eV
Virial Ratio       :          2.00935918847509

DFT components:
N(Alpha)           :       82.999949301241 electrons
N(Beta)            :       82.999949301241 electrons
N(Total)           :      165.999898602482 electrons
E(X)               :     -108.136314889558 Eh       
E(C)               :       -6.601229196765 Eh       
E(XC)              :     -114.737544086323 Eh       

---------------
SCF CONVERGENCE
---------------

  Last Energy change         ...   -9.1031e-09  Tolerance :   1.0000e-08
  Last MAX-Density change    ...    5.4869e-05  Tolerance :   1.0000e-07
  Last RMS-Density change    ...    2.2310e-06  Tolerance :   5.0000e-09
  Last DIIS Error            ...    1.3563e-03  Tolerance :   5.0000e-07
  Last Orbital Gradient      ...    2.1365e-05  Tolerance :   1.0000e-05
  Last Orbital Rotation      ...    2.7025e-05  Tolerance :   1.0000e-05


----------------
ORBITAL ENERGIES
----------------

  NO   OCC          E(Eh)            E(eV) 
   0   2.0000     -19.173672      -521.7421 
   1   2.0000     -19.118930      -520.2525 
   2   2.0000     -19.115427      -520.1572 
   3   2.0000     -10.271599      -279.5044 
   4   2.0000     -10.269360      -279.4435 
   5   2.0000     -10.257371      -279.1173 
   6   2.0000     -10.249483      -278.9026 
   7   2.0000     -10.200329      -277.5651 
   8   2.0000     -10.196817      -277.4695 
   9   2.0000     -10.195865      -277.4436 
  10   2.0000     -10.190567      -277.2994 
  11   2.0000     -10.189988      -277.2837 
  12   2.0000     -10.189750      -277.2772 
  13   2.0000     -10.189249      -277.2636 
  14   2.0000     -10.188170      -277.2342 
  15   2.0000     -10.187466      -277.2150 
  16   2.0000     -10.185827      -277.1704 
  17   2.0000     -10.185267      -277.1552 
  18   2.0000     -10.184413      -277.1320 
  19   2.0000     -10.184191      -277.1259 
  20   2.0000     -10.175572      -276.8914 
  21   2.0000     -10.175059      -276.8774 
  22   2.0000     -10.175025      -276.8765 
  23   2.0000      -1.069564       -29.1043 
  24   2.0000      -1.027893       -27.9704 
  25   2.0000      -1.022017       -27.8105 
  26   2.0000      -0.864596       -23.5268 
  27   2.0000      -0.857939       -23.3457 
  28   2.0000      -0.819138       -22.2899 
  29   2.0000      -0.781966       -21.2784 
  30   2.0000      -0.760601       -20.6970 
  31   2.0000      -0.750023       -20.4092 
  32   2.0000      -0.744207       -20.2509 
  33   2.0000      -0.734448       -19.9853 
  34   2.0000      -0.703007       -19.1298 
  35   2.0000      -0.684267       -18.6199 
  36   2.0000      -0.683399       -18.5962 
  37   2.0000      -0.636985       -17.3333 
  38   2.0000      -0.621900       -16.9228 
  39   2.0000      -0.610123       -16.6023 
  40   2.0000      -0.599724       -16.3193 
  41   2.0000      -0.564071       -15.3492 
  42   2.0000      -0.552279       -15.0283 
  43   2.0000      -0.549372       -14.9492 
  44   2.0000      -0.539578       -14.6827 
  45   2.0000      -0.506645       -13.7865 
  46   2.0000      -0.496298       -13.5049 
  47   2.0000      -0.481959       -13.1148 
  48   2.0000      -0.480440       -13.0734 
  49   2.0000      -0.477255       -12.9868 
  50   2.0000      -0.459942       -12.5157 
  51   2.0000      -0.452150       -12.3036 
  52   2.0000      -0.449611       -12.2345 
  53   2.0000      -0.445743       -12.1293 
  54   2.0000      -0.439406       -11.9568 
  55   2.0000      -0.433531       -11.7970 
  56   2.0000      -0.432162       -11.7597 
  57   2.0000      -0.427978       -11.6459 
  58   2.0000      -0.421239       -11.4625 
  59   2.0000      -0.417450       -11.3594 
  60   2.0000      -0.407717       -11.0945 
  61   2.0000      -0.402957       -10.9650 
  62   2.0000      -0.398175       -10.8349 
  63   2.0000      -0.395071       -10.7504 
  64   2.0000      -0.388930       -10.5833 
  65   2.0000      -0.380031       -10.3412 
  66   2.0000      -0.377102       -10.2615 
  67   2.0000      -0.370160       -10.0726 
  68   2.0000      -0.368613       -10.0305 
  69   2.0000      -0.364515        -9.9190 
  70   2.0000      -0.355383        -9.6705 
  71   2.0000      -0.352444        -9.5905 
  72   2.0000      -0.335313        -9.1243 
  73   2.0000      -0.332266        -9.0414 
  74   2.0000      -0.330589        -8.9958 
  75   2.0000      -0.325970        -8.8701 
  76   2.0000      -0.319900        -8.7049 
  77   2.0000      -0.264401        -7.1947 
  78   2.0000      -0.260727        -7.0947 
  79   2.0000      -0.260024        -7.0756 
  80   2.0000      -0.250545        -6.8177 
  81   2.0000      -0.243171        -6.6170 
  82   2.0000      -0.233285        -6.3480 
  83   0.0000      -0.067776        -1.8443 
  84   0.0000      -0.043224        -1.1762 
  85   0.0000      -0.010185        -0.2771 
  86   0.0000      -0.007923        -0.2156 
  87   0.0000       0.037860         1.0302 
  88   0.0000       0.050618         1.3774 
  89   0.0000       0.052892         1.4393 
  90   0.0000       0.061338         1.6691 
  91   0.0000       0.082725         2.2511 
  92   0.0000       0.089174         2.4265 
  93   0.0000       0.094957         2.5839 
*Only the first 10 virtual orbitals were printed.

                    ********************************
                    * MULLIKEN POPULATION ANALYSIS *
                    ********************************

-----------------------
MULLIKEN ATOMIC CHARGES
-----------------------
   0 C :    0.120087
   1 C :   -0.281816
   2 C :    0.103981
   3 C :    0.103662
   4 C :    0.123515
   5 C :   -0.034232
   6 C :    0.010359
   7 C :    0.024136
   8 C :    0.011493
   9 C :   -0.016754
  10 C :    0.012862
  11 O :   -0.200244
  12 C :    0.185560
  13 C :    0.008911
  14 O :   -0.203678
  15 C :    0.020256
  16 C :    0.011892
  17 C :   -0.004158
  18 C :    0.248337
  19 O :   -0.304943
  20 C :    0.193086
  21 C :   -0.081390
  22 C :    0.014233
  23 H :    0.003691
  24 H :    0.003739
  25 H :   -0.002593
  26 H :   -0.000656
  27 H :   -0.002043
  28 H :    0.005273
  29 H :    0.006408
  30 H :    0.000706
  31 H :   -0.002469
  32 H :   -0.031596
  33 H :   -0.014336
  34 H :   -0.019441
  35 H :   -0.037402
  36 H :    0.015124
  37 H :    0.015074
  38 H :   -0.012432
  39 H :   -0.026974
  40 H :    0.034405
  41 H :    0.024691
  42 H :    0.023148
  43 H :   -0.037093
  44 H :   -0.010382
Sum of atomic charges:   -0.0000000

--------------------------------
MULLIKEN REDUCED ORBITAL CHARGES
--------------------------------
  0 C s       :     2.923613  s :     2.923613
      pz      :     0.980292  p :     2.927295
      px      :     0.973134
      py      :     0.973870
      dz2     :     0.008874  d :     0.029005
      dxz     :     0.003844
      dyz     :     0.003314
      dx2y2   :     0.005280
      dxy     :     0.007694

  1 C s       :     3.201903  s :     3.201903
      pz      :     1.022753  p :     3.027645
      px      :     0.977873
      py      :     1.027019
      dz2     :     0.012225  d :     0.052268
      dxz     :     0.009371
      dyz     :     0.008953
      dx2y2   :     0.010372
      dxy     :     0.011348

  2 C s       :     2.955317  s :     2.955317
      pz      :     0.984795  p :     2.911485
      px      :     0.961642
      py      :     0.965048
      dz2     :     0.008354  d :     0.029216
      dxz     :     0.003786
      dyz     :     0.003914
      dx2y2   :     0.007521
      dxy     :     0.005641

  3 C s       :     2.955731  s :     2.955731
      pz      :     0.937015  p :     2.911423
      px      :     0.982855
      py      :     0.991553
      dz2     :     0.007111  d :     0.029185
      dxz     :     0.005638
      dyz     :     0.005758
      dx2y2   :     0.004284
      dxy     :     0.006393

  4 C s       :     3.063888  s :     3.063888
      pz      :     0.919948  p :     2.769707
      px      :     0.925075
      py      :     0.924684
      dz2     :     0.007698  d :     0.042890
      dxz     :     0.007508
      dyz     :     0.007288
      dx2y2   :     0.009965
      dxy     :     0.010431

  5 C s       :     3.238368  s :     3.238368
      pz      :     0.911578  p :     2.760684
      px      :     0.931064
      py      :     0.918041
      dz2     :     0.004329  d :     0.035180
      dxz     :     0.006339
      dyz     :     0.006501
      dx2y2   :     0.008499
      dxy     :     0.009513

  6 C s       :     3.222410  s :     3.222410
      pz      :     0.951286  p :     2.731310
      px      :     0.920247
      py      :     0.859777
      dz2     :     0.006445  d :     0.035921
      dxz     :     0.007142
      dyz     :     0.005553
      dx2y2   :     0.008097
      dxy     :     0.008684

  7 C s       :     3.086233  s :     3.086233
      pz      :     0.978513  p :     2.850082
      px      :     0.930432
      py      :     0.941137
      dz2     :     0.006491  d :     0.039550
      dxz     :     0.006888
      dyz     :     0.007352
      dx2y2   :     0.009769
      dxy     :     0.009050

  8 C s       :     3.265058  s :     3.265058
      pz      :     0.869087  p :     2.687604
      px      :     0.885272
      py      :     0.933246
      dz2     :     0.004294  d :     0.035844
      dxz     :     0.006848
      dyz     :     0.006424
      dx2y2   :     0.008998
      dxy     :     0.009280

  9 C s       :     3.241127  s :     3.241127
      pz      :     0.976304  p :     2.740274
      px      :     0.909555
      py      :     0.854416
      dz2     :     0.005881  d :     0.035354
      dxz     :     0.007104
      dyz     :     0.005552
      dx2y2   :     0.008272
      dxy     :     0.008544

 10 C s       :     3.135561  s :     3.135561
      pz      :     0.874136  p :     2.756489
      px      :     0.942991
      py      :     0.939362
      dz2     :     0.017776  d :     0.095088
      dxz     :     0.019301
      dyz     :     0.017505
      dx2y2   :     0.023912
      dxy     :     0.016594

 11 O s       :     3.736098  s :     3.736098
      pz      :     1.333765  p :     4.446552
      px      :     1.598232
      py      :     1.514555
      dz2     :     0.004629  d :     0.017595
      dxz     :     0.003401
      dyz     :     0.004378
      dx2y2   :     0.002077
      dxy     :     0.003111

 12 C s       :     2.876863  s :     2.876863
      pz      :     0.974006  p :     2.908160
      px      :     0.934376
      py      :     0.999778
      dz2     :     0.007087  d :     0.029417
      dxz     :     0.006723
      dyz     :     0.003791
      dx2y2   :     0.004103
      dxy     :     0.007713

 13 C s       :     3.133248  s :     3.133248
      pz      :     0.979509  p :     2.762536
      px      :     0.904851
      py      :     0.878176
      dz2     :     0.032593  d :     0.095306
      dxz     :     0.019035
      dyz     :     0.016767
      dx2y2   :     0.013052
      dxy     :     0.013859

 14 O s       :     3.736014  s :     3.736014
      pz      :     1.526280  p :     4.450096
      px      :     1.513992
      py      :     1.409824
      dz2     :     0.003712  d :     0.017568
      dxz     :     0.004384
      dyz     :     0.004795
      dx2y2   :     0.002536
      dxy     :     0.002141

 15 C s       :     3.073092  s :     3.073092
      pz      :     0.908276  p :     2.867522
      px      :     0.961774
      py      :     0.997471
      dz2     :     0.011181  d :     0.039129
      dxz     :     0.009557
      dyz     :     0.008511
      dx2y2   :     0.003927
      dxy     :     0.005953

 16 C s       :     3.261992  s :     3.261992
      pz      :     0.930593  p :     2.689756
      px      :     0.878753
      py      :     0.880411
      dz2     :     0.008643  d :     0.036359
      dxz     :     0.009236
      dyz     :     0.007996
      dx2y2   :     0.005571
      dxy     :     0.004913

 17 C s       :     3.246793  s :     3.246793
      pz      :     0.813366  p :     2.724076
      px      :     0.937313
      py      :     0.973397
      dz2     :     0.007327  d :     0.033289
      dxz     :     0.008737
      dyz     :     0.006919
      dx2y2   :     0.005522
      dxy     :     0.004783

 18 C s       :     2.939407  s :     2.939407
      pz      :     0.986384  p :     2.735808
      px      :     0.860601
      py      :     0.888823
      dz2     :     0.015147  d :     0.076448
      dxz     :     0.016844
      dyz     :     0.014661
      dx2y2   :     0.016231
      dxy     :     0.013565

 19 O s       :     3.730098  s :     3.730098
      pz      :     1.592655  p :     4.557819
      px      :     1.449494
      py      :     1.515670
      dz2     :     0.003040  d :     0.017026
      dxz     :     0.004263
      dyz     :     0.003911
      dx2y2   :     0.002731
      dxy     :     0.003081

 20 C s       :     2.995430  s :     2.995430
      pz      :     0.884101  p :     2.758145
      px      :     0.940266
      py      :     0.933778
      dz2     :     0.005564  d :     0.053340
      dxz     :     0.015021
      dyz     :     0.015616
      dx2y2   :     0.004673
      dxy     :     0.012466

 21 C s       :     3.240642  s :     3.240642
      pz      :     0.855082  p :     2.807438
      px      :     0.968856
      py      :     0.983500
      dz2     :     0.008201  d :     0.033309
      dxz     :     0.008931
      dyz     :     0.007429
      dx2y2   :     0.004265
      dxy     :     0.004483

 22 C s       :     3.222317  s :     3.222317
      pz      :     0.864455  p :     2.726941
      px      :     0.921449
      py      :     0.941037
      dz2     :     0.009329  d :     0.036510
      dxz     :     0.007879
      dyz     :     0.006202
      dx2y2   :     0.007590
      dxy     :     0.005510

 23 H s       :     0.972384  s :     0.972384
      pz      :     0.013967  p :     0.023925
      px      :     0.005647
      py      :     0.004310

 24 H s       :     0.972338  s :     0.972338
      pz      :     0.005566  p :     0.023923
      px      :     0.008726
      py      :     0.009630

 25 H s       :     0.978847  s :     0.978847
      pz      :     0.006686  p :     0.023745
      px      :     0.012140
      py      :     0.004919

 26 H s       :     0.976658  s :     0.976658
      pz      :     0.006567  p :     0.023999
      px      :     0.005271
      py      :     0.012161

 27 H s       :     0.978184  s :     0.978184
      pz      :     0.006443  p :     0.023859
      px      :     0.012148
      py      :     0.005268

 28 H s       :     0.971052  s :     0.971052
      pz      :     0.014104  p :     0.023675
      px      :     0.004703
      py      :     0.004868

 29 H s       :     0.969912  s :     0.969912
      pz      :     0.004572  p :     0.023680
      px      :     0.009913
      py      :     0.009195

 30 H s       :     0.975276  s :     0.975276
      pz      :     0.005887  p :     0.024018
      px      :     0.006094
      py      :     0.012037

 31 H s       :     0.978607  s :     0.978607
      pz      :     0.005855  p :     0.023863
      px      :     0.011779
      py      :     0.006228

 32 H s       :     1.007864  s :     1.007864
      pz      :     0.009602  p :     0.023732
      px      :     0.006457
      py      :     0.007673

 33 H s       :     0.989504  s :     0.989504
      pz      :     0.005801  p :     0.024832
      px      :     0.006247
      py      :     0.012784

 34 H s       :     0.995623  s :     0.995623
      pz      :     0.009528  p :     0.023818
      px      :     0.007138
      py      :     0.007152

 35 H s       :     1.013518  s :     1.013518
      pz      :     0.005542  p :     0.023884
      px      :     0.005781
      py      :     0.012561

 36 H s       :     0.961632  s :     0.961632
      pz      :     0.008460  p :     0.023243
      px      :     0.010071
      py      :     0.004712

 37 H s       :     0.961685  s :     0.961685
      pz      :     0.004179  p :     0.023241
      px      :     0.008461
      py      :     0.010601

 38 H s       :     0.988521  s :     0.988521
      pz      :     0.009394  p :     0.023912
      px      :     0.007278
      py      :     0.007240

 39 H s       :     1.003440  s :     1.003440
      pz      :     0.013933  p :     0.023534
      px      :     0.005054
      py      :     0.004547

 40 H s       :     0.943765  s :     0.943765
      pz      :     0.006257  p :     0.021830
      px      :     0.008547
      py      :     0.007025

 41 H s       :     0.952466  s :     0.952466
      pz      :     0.006788  p :     0.022842
      px      :     0.007401
      py      :     0.008653

 42 H s       :     0.954036  s :     0.954036
      pz      :     0.008243  p :     0.022816
      px      :     0.007169
      py      :     0.007404

 43 H s       :     1.013074  s :     1.013074
      pz      :     0.009948  p :     0.024020
      px      :     0.006835
      py      :     0.007236

 44 H s       :     0.985467  s :     0.985467
      pz      :     0.015249  p :     0.024915
      px      :     0.005423
      py      :     0.004243



                     *******************************
                     * LOEWDIN POPULATION ANALYSIS *
                     *******************************

----------------------
LOEWDIN ATOMIC CHARGES
----------------------
   0 C :   -0.034123
   1 C :   -0.048732
   2 C :   -0.026919
   3 C :   -0.026786
   4 C :    0.015902
   5 C :   -0.021821
   6 C :    0.005494
   7 C :   -0.079868
   8 C :    0.023074
   9 C :   -0.030823
  10 C :    0.087905
  11 O :   -0.158261
  12 C :   -0.067555
  13 C :    0.084723
  14 O :   -0.162773
  15 C :   -0.095104
  16 C :    0.027865
  17 C :   -0.043064
  18 C :    0.068600
  19 O :   -0.089116
  20 C :    0.088070
  21 C :   -0.075868
  22 C :    0.016673
  23 H :    0.019565
  24 H :    0.019759
  25 H :    0.021405
  26 H :    0.017727
  27 H :    0.019048
  28 H :    0.022211
  29 H :    0.022736
  30 H :    0.018210
  31 H :    0.018910
  32 H :    0.022599
  33 H :    0.026967
  34 H :    0.029192
  35 H :    0.024249
  36 H :    0.041949
  37 H :    0.042161
  38 H :    0.032058
  39 H :    0.030274
  40 H :    0.027932
  41 H :    0.016002
  42 H :    0.015334
  43 H :    0.025997
  44 H :    0.028222

-------------------------------
LOEWDIN REDUCED ORBITAL CHARGES
-------------------------------
  0 C s       :     2.831498  s :     2.831498
      pz      :     1.052310  p :     3.128148
      px      :     1.053842
      py      :     1.021996
      dz2     :     0.022646  d :     0.074477
      dxz     :     0.009850
      dyz     :     0.008571
      dx2y2   :     0.013805
      dxy     :     0.019606

  1 C s       :     2.840997  s :     2.840997
      pz      :     1.033531  p :     3.088415
      px      :     1.021786
      py      :     1.033098
      dz2     :     0.029964  d :     0.119320
      dxz     :     0.020116
      dyz     :     0.018283
      dx2y2   :     0.023281
      dxy     :     0.027676

  2 C s       :     2.833626  s :     2.833626
      pz      :     1.058224  p :     3.118704
      px      :     1.029009
      py      :     1.031471
      dz2     :     0.021471  d :     0.074588
      dxz     :     0.009231
      dyz     :     0.009815
      dx2y2   :     0.018038
      dxy     :     0.016033

  3 C s       :     2.833566  s :     2.833566
      pz      :     1.000590  p :     3.118691
      px      :     1.058576
      py      :     1.059524
      dz2     :     0.020386  d :     0.074529
      dxz     :     0.013354
      dyz     :     0.013671
      dx2y2   :     0.010912
      dxy     :     0.016206

  4 C s       :     2.856057  s :     2.856057
      pz      :     0.977810  p :     3.018727
      px      :     1.005411
      py      :     1.035506
      dz2     :     0.017021  d :     0.109314
      dxz     :     0.019221
      dyz     :     0.019729
      dx2y2   :     0.026129
      dxy     :     0.027214

  5 C s       :     2.848582  s :     2.848582
      pz      :     1.007577  p :     3.079924
      px      :     1.039065
      py      :     1.033282
      dz2     :     0.010559  d :     0.093315
      dxz     :     0.016536
      dyz     :     0.016442
      dx2y2   :     0.022613
      dxy     :     0.027165

  6 C s       :     2.853656  s :     2.853656
      pz      :     0.986579  p :     3.046903
      px      :     1.034097
      py      :     1.026227
      dz2     :     0.014973  d :     0.093947
      dxz     :     0.019716
      dyz     :     0.014362
      dx2y2   :     0.021663
      dxy     :     0.023233

  7 C s       :     2.852504  s :     2.852504
      pz      :     1.032125  p :     3.119254
      px      :     1.028609
      py      :     1.058519
      dz2     :     0.015522  d :     0.108111
      dxz     :     0.019400
      dyz     :     0.020092
      dx2y2   :     0.027240
      dxy     :     0.025857

  8 C s       :     2.854602  s :     2.854602
      pz      :     0.977538  p :     3.028938
      px      :     1.026573
      py      :     1.024828
      dz2     :     0.010297  d :     0.093385
      dxz     :     0.017442
      dyz     :     0.016041
      dx2y2   :     0.023451
      dxy     :     0.026153

  9 C s       :     2.849270  s :     2.849270
      pz      :     1.017658  p :     3.087601
      px      :     1.042729
      py      :     1.027215
      dz2     :     0.013768  d :     0.093951
      dxz     :     0.020132
      dyz     :     0.014541
      dx2y2   :     0.022344
      dxy     :     0.023166

 10 C s       :     2.869976  s :     2.869976
      pz      :     0.891325  p :     2.825014
      px      :     0.981270
      py      :     0.952419
      dz2     :     0.033905  d :     0.217105
      dxz     :     0.047009
      dyz     :     0.042830
      dx2y2   :     0.056380
      dxy     :     0.036982

 11 O s       :     3.546502  s :     3.546502
      pz      :     1.393060  p :     4.581337
      px      :     1.624375
      py      :     1.563902
      dz2     :     0.005912  d :     0.030423
      dxz     :     0.006647
      dyz     :     0.009021
      dx2y2   :     0.003613
      dxy     :     0.005229

 12 C s       :     2.848549  s :     2.848549
      pz      :     1.043580  p :     3.139082
      px      :     1.049641
      py      :     1.045861
      dz2     :     0.020256  d :     0.079924
      dxz     :     0.018348
      dyz     :     0.009828
      dx2y2   :     0.010217
      dxy     :     0.021275

 13 C s       :     2.868584  s :     2.868584
      pz      :     1.008006  p :     2.829039
      px      :     0.933464
      py      :     0.887570
      dz2     :     0.077971  d :     0.217654
      dxz     :     0.042852
      dyz     :     0.037672
      dx2y2   :     0.024959
      dxy     :     0.034201

 14 O s       :     3.546708  s :     3.546708
      pz      :     1.604288  p :     4.585682
      px      :     1.541857
      py      :     1.439537
      dz2     :     0.006702  d :     0.030384
      dxz     :     0.007741
      dyz     :     0.008743
      dx2y2   :     0.003141
      dxy     :     0.004057

 15 C s       :     2.850398  s :     2.850398
      pz      :     1.069014  p :     3.137254
      px      :     1.033869
      py      :     1.034371
      dz2     :     0.032975  d :     0.107451
      dxz     :     0.026707
      dyz     :     0.022453
      dx2y2   :     0.008347
      dxy     :     0.016968

 16 C s       :     2.853671  s :     2.853671
      pz      :     1.054128  p :     3.024160
      px      :     0.997166
      py      :     0.972866
      dz2     :     0.023953  d :     0.094303
      dxz     :     0.025134
      dyz     :     0.020559
      dx2y2   :     0.011481
      dxy     :     0.013176

 17 C s       :     2.854276  s :     2.854276
      pz      :     1.031858  p :     3.099131
      px      :     1.038169
      py      :     1.029104
      dz2     :     0.021278  d :     0.089656
      dxz     :     0.023810
      dyz     :     0.018357
      dx2y2   :     0.011856
      dxy     :     0.014355

 18 C s       :     2.836834  s :     2.836834
      pz      :     1.094377  p :     2.917300
      px      :     0.904526
      py      :     0.918397
      dz2     :     0.037980  d :     0.177266
      dxz     :     0.041836
      dyz     :     0.035245
      dx2y2   :     0.032085
      dxy     :     0.030120

 19 O s       :     3.431453  s :     3.431453
      pz      :     1.614037  p :     4.625759
      px      :     1.478291
      py      :     1.533432
      dz2     :     0.005050  d :     0.031904
      dxz     :     0.007831
      dyz     :     0.006942
      dx2y2   :     0.004999
      dxy     :     0.007081

 20 C s       :     2.840882  s :     2.840882
      pz      :     0.960624  p :     2.949169
      px      :     0.995968
      py      :     0.992577
      dz2     :     0.011051  d :     0.121879
      dxz     :     0.035888
      dyz     :     0.037546
      dx2y2   :     0.008718
      dxy     :     0.028675

 21 C s       :     2.849876  s :     2.849876
      pz      :     1.034756  p :     3.135827
      px      :     1.052115
      py      :     1.048955
      dz2     :     0.024630  d :     0.090166
      dxz     :     0.024685
      dyz     :     0.019523
      dx2y2   :     0.008798
      dxy     :     0.012530

 22 C s       :     2.852693  s :     2.852693
      pz      :     1.053566  p :     3.035518
      px      :     1.002329
      py      :     0.979623
      dz2     :     0.025525  d :     0.095116
      dxz     :     0.021231
      dyz     :     0.016128
      dx2y2   :     0.016530
      dxy     :     0.015701

 23 H s       :     0.913401  s :     0.913401
      pz      :     0.040263  p :     0.067034
      px      :     0.013598
      py      :     0.013174

 24 H s       :     0.913215  s :     0.913215
      pz      :     0.013942  p :     0.067026
      px      :     0.024325
      py      :     0.028758

 25 H s       :     0.912188  s :     0.912188
      pz      :     0.017736  p :     0.066407
      px      :     0.033906
      py      :     0.014766

 26 H s       :     0.915084  s :     0.915084
      pz      :     0.016845  p :     0.067189
      px      :     0.014678
      py      :     0.035666

 27 H s       :     0.914411  s :     0.914411
      pz      :     0.016458  p :     0.066541
      px      :     0.035397
      py      :     0.014686

 28 H s       :     0.911370  s :     0.911370
      pz      :     0.040210  p :     0.066419
      px      :     0.013021
      py      :     0.013187

 29 H s       :     0.910833  s :     0.910833
      pz      :     0.014612  p :     0.066431
      px      :     0.026736
      py      :     0.025083

 30 H s       :     0.914559  s :     0.914559
      pz      :     0.018494  p :     0.067231
      px      :     0.014703
      py      :     0.034034

 31 H s       :     0.914554  s :     0.914554
      pz      :     0.018281  p :     0.066535
      px      :     0.032932
      py      :     0.015322

 32 H s       :     0.907163  s :     0.907163
      pz      :     0.027881  p :     0.070238
      px      :     0.019197
      py      :     0.023160

 33 H s       :     0.898632  s :     0.898632
      pz      :     0.017553  p :     0.074401
      px      :     0.018677
      py      :     0.038171

 34 H s       :     0.898636  s :     0.898636
      pz      :     0.028288  p :     0.072172
      px      :     0.022008
      py      :     0.021876

 35 H s       :     0.904613  s :     0.904613
      pz      :     0.016969  p :     0.071138
      px      :     0.017570
      py      :     0.036599

 36 H s       :     0.888380  s :     0.888380
      pz      :     0.025273  p :     0.069671
      px      :     0.030548
      py      :     0.013850

 37 H s       :     0.888134  s :     0.888134
      pz      :     0.012971  p :     0.069706
      px      :     0.025629
      py      :     0.031105

 38 H s       :     0.895883  s :     0.895883
      pz      :     0.028334  p :     0.072059
      px      :     0.021985
      py      :     0.021740

 39 H s       :     0.899137  s :     0.899137
      pz      :     0.040541  p :     0.070588
      px      :     0.015594
      py      :     0.014453

 40 H s       :     0.908436  s :     0.908436
      pz      :     0.018732  p :     0.063632
      px      :     0.024853
      py      :     0.020047

 41 H s       :     0.918162  s :     0.918162
      pz      :     0.019589  p :     0.065836
      px      :     0.021722
[...]
    76a ->  84a  :     0.023459 (c= -0.15316207)
    77a ->  84a  :     0.041716 (c=  0.20424594)
    78a ->  85a  :     0.226428 (c=  0.47584406)
    78a ->  86a  :     0.045664 (c= -0.21369206)
    79a ->  85a  :     0.143777 (c= -0.37917955)
    79a ->  86a  :     0.027281 (c=  0.16516943)
    80a ->  85a  :     0.058021 (c= -0.24087646)
    82a ->  85a  :     0.055333 (c=  0.23523038)

Storing amplitudes in GBW file ... 
... GBW file created

-----------------------------
TD-DFT/TDA-EXCITATION SPECTRA
-----------------------------

Center of mass = (  1.0707, -0.4337,  0.3041)
Generating CIS transition densities           ... done

----------------------------------------------------------------------------------------------------
                     ABSORPTION SPECTRUM VIA TRANSITION ELECTRIC DIPOLE MOMENTS    
----------------------------------------------------------------------------------------------------
     Transition      Energy     Energy  Wavelength fosc(D2)      D2        DX        DY        DZ   
                      (eV)      (cm-1)    (nm)                 (au**2)    (au)      (au)      (au)  
----------------------------------------------------------------------------------------------------
  0-1A  ->  1-1A    3.572792   28816.5   347.0   0.023397364   0.26730   0.47650  -0.04613  -0.19525
  0-1A  ->  2-1A    3.863608   31162.1   320.9   0.001257172   0.01328  -0.09544   0.06412  -0.00784
  0-1A  ->  3-1A    4.094373   33023.3   302.8   0.110769427   1.10427  -0.95942  -0.38818   0.18195
  0-1A  ->  4-1A    4.548867   36689.1   272.6   0.006994498   0.06276   0.22904  -0.08872  -0.04932
  0-1A  ->  5-1A    4.560007   36778.9   271.9   0.071637470   0.64123   0.73470  -0.31817  -0.01504
  0-1A  ->  6-1A    4.650545   37509.2   266.6   0.119167731   1.04592  -1.01047  -0.00304  -0.15764
  0-1A  ->  7-1A    4.696195   37877.4   264.0   0.038195844   0.33198  -0.53675   0.03132  -0.20711
  0-1A  ->  8-1A    4.915464   39645.9   252.2   0.251689595   2.08998   1.32791   0.49458  -0.28640
  0-1A  ->  9-1A    5.147589   41518.1   240.9   0.157084041   1.24558   0.64116   0.91202  -0.05213
  0-1A  -> 10-1A    5.187208   41837.7   239.0   0.015520066   0.12212  -0.01517  -0.34558  -0.04971
  0-1A  -> 11-1A    5.225656   42147.8   237.3   0.020612532   0.16100  -0.39410  -0.00630  -0.07515
  0-1A  -> 12-1A    5.409810   43633.1   229.2   0.259686567   1.95934  -1.25722   0.31542  -0.52844
  0-1A  -> 13-1A    5.549221   44757.5   223.4   0.001566073   0.01152   0.08955   0.01046   0.05823
  0-1A  -> 14-1A    5.628202   45394.5   220.3   0.000341025   0.00247  -0.04796  -0.00915   0.00944
  0-1A  -> 15-1A    5.670956   45739.4   218.6   0.001887320   0.01358   0.10580  -0.04050  -0.02740
  0-1A  -> 16-1A    6.028609   48624.0   205.7   0.050216414   0.33999   0.13699   0.00021  -0.56677
  0-1A  -> 17-1A    6.064370   48912.4   204.4   0.046477494   0.31282  -0.06365  -0.03592  -0.55451
  0-1A  -> 18-1A    6.071341   48968.7   204.2   0.013792757   0.09273  -0.06939  -0.00467   0.29646

----------------------------------------------------------------------------------------------------
                     ABSORPTION SPECTRUM VIA TRANSITION VELOCITY DIPOLE MOMENTS    
----------------------------------------------------------------------------------------------------
     Transition      Energy     Energy  Wavelength fosc(P2)      P2        PX        PY        PZ   
                      (eV)      (cm-1)    (nm)                 (au**2)    (au)      (au)      (au)  
----------------------------------------------------------------------------------------------------
  0-1A  ->  1-1A    3.572792   28816.5   347.0   0.022115211   0.00436  -0.06494  -0.01015  -0.00595
  0-1A  ->  2-1A    3.863608   31162.1   320.9   0.001827673   0.00039   0.01270  -0.01158   0.00969
  0-1A  ->  3-1A    4.094373   33023.3   302.8   0.025171225   0.00568   0.07371  -0.00086  -0.01571
  0-1A  ->  4-1A    4.548867   36689.1   272.6   0.003274101   0.00082  -0.02598  -0.01182  -0.00255
  0-1A  ->  5-1A    4.560007   36778.9   271.9   0.024022660   0.00604  -0.07670  -0.00751  -0.00996
  0-1A  ->  6-1A    4.650545   37509.2   266.6   0.046694139   0.01197   0.10270  -0.03560  -0.01249
  0-1A  ->  7-1A    4.696195   37877.4   264.0   0.011427039   0.00296   0.04891  -0.01660  -0.01704
  0-1A  ->  8-1A    4.915464   39645.9   252.2   0.076861939   0.02083  -0.14315  -0.01394   0.01186
  0-1A  ->  9-1A    5.147589   41518.1   240.9   0.009248782   0.00262  -0.03295  -0.00369   0.03905
  0-1A  -> 10-1A    5.187208   41837.7   239.0   0.002309413   0.00066  -0.00986   0.00931  -0.02183
  0-1A  -> 11-1A    5.225656   42147.8   237.3   0.005160867   0.00149   0.03770  -0.00458  -0.00667
  0-1A  -> 12-1A    5.409810   43633.1   229.2   0.072545846   0.02163   0.13719  -0.05076  -0.01537
  0-1A  -> 13-1A    5.549221   44757.5   223.4   0.000292449   0.00009  -0.00693   0.00574   0.00291
  0-1A  -> 14-1A    5.628202   45394.5   220.3   0.000243141   0.00008   0.00825   0.00000  -0.00272
  0-1A  -> 15-1A    5.670956   45739.4   218.6   0.001009994   0.00032  -0.01706   0.00029  -0.00497
  0-1A  -> 16-1A    6.028609   48624.0   205.7   0.006364578   0.00212  -0.04049  -0.00844  -0.02010
  0-1A  -> 17-1A    6.064370   48912.4   204.4   0.002074935   0.00069  -0.00858  -0.00549  -0.02429
  0-1A  -> 18-1A    6.071341   48968.7   204.2   0.001210547   0.00041   0.01380   0.00307   0.01433

------------------------------------------------------------------------------------------
                     CD SPECTRUM VIA TRANSITION ELECTRIC DIPOLE MOMENTS    
------------------------------------------------------------------------------------------
     Transition      Energy     Energy  Wavelength    R        MX        MY        MZ   
                      (eV)      (cm-1)    (nm)   (1e40*cgs)   (au)      (au)      (au)  
------------------------------------------------------------------------------------------
  0-1A  ->  1-1A    3.572792   28816.5   347.0   15.80371  -0.28312  -0.31847  -0.44402
  0-1A  ->  2-1A    3.863608   31162.1   320.9    1.82741   0.03493  -0.00011   0.06827
  0-1A  ->  3-1A    4.094373   33023.3   302.8   17.66775   0.08511  -0.04993   0.13630
  0-1A  ->  4-1A    4.548867   36689.1   272.6    0.18489   0.00772   0.04445  -0.03617
  0-1A  ->  5-1A    4.560007   36778.9   271.9  -32.24011   0.03696  -0.12426  -0.11275
  0-1A  ->  6-1A    4.650545   37509.2   266.6   39.75910   0.07836   0.25387   0.02777
  0-1A  ->  7-1A    4.696195   37877.4   264.0   52.77827   0.19209  -0.03546   0.03734
  0-1A  ->  8-1A    4.915464   39645.9   252.2   73.85331  -0.18842   0.04655  -0.24624
  0-1A  ->  9-1A    5.147589   41518.1   240.9  -38.05492  -0.16094   0.18606  -0.27282
  0-1A  -> 10-1A    5.187208   41837.7   239.0    2.35291  -0.04944   0.00892   0.05350
  0-1A  -> 11-1A    5.225656   42147.8   237.3    3.89835   0.00027   0.04325   0.10499
  0-1A  -> 12-1A    5.409810   43633.1   229.2   39.54609   0.13086   0.39279   0.08185
  0-1A  -> 13-1A    5.549221   44757.5   223.4    0.91556  -0.03091  -0.03745   0.02091
  0-1A  -> 14-1A    5.628202   45394.5   220.3    0.69454   0.04429  -0.01804   0.05150
  0-1A  -> 15-1A    5.670956   45739.4   218.6   -1.54905   0.02183   0.00419  -0.04180
  0-1A  -> 16-1A    6.028609   48624.0   205.7  -12.23047   0.03600  -0.06085  -0.03709
  0-1A  -> 17-1A    6.064370   48912.4   204.4   -6.10532   0.01425   0.04983  -0.02822
  0-1A  -> 18-1A    6.071341   48968.7   204.2  -10.44906   0.01502   0.03242   0.07879

------------------------------------------------------------------------------------------
                     CD SPECTRUM VIA TRANSITION VELOCITY DIPOLE MOMENTS    
------------------------------------------------------------------------------------------
     Transition      Energy     Energy  Wavelength    R        MX        MY        MZ   
                      (eV)      (cm-1)    (nm)   (1e40*cgs)   (au)      (au)      (au)  
------------------------------------------------------------------------------------------
  0-1A  ->  1-1A    3.572792   28816.5   347.0   87.10666  -0.28312  -0.31847  -0.44402
  0-1A  ->  2-1A    3.863608   31162.1   320.9    3.67328   0.03493  -0.00011   0.06827
  0-1A  ->  3-1A    4.094373   33023.3   302.8   13.08297   0.08511  -0.04993   0.13630
  0-1A  ->  4-1A    4.548867   36689.1   272.6   -1.78641   0.00772   0.04445  -0.03617
  0-1A  ->  5-1A    4.560007   36778.9   271.9   -2.19227   0.03696  -0.12426  -0.11275
  0-1A  ->  6-1A    4.650545   37509.2   266.6   -3.68438   0.07836   0.25387   0.02777
  0-1A  ->  7-1A    4.696195   37877.4   264.0   25.53376   0.19209  -0.03546   0.03734
  0-1A  ->  8-1A    4.915464   39645.9   252.2   61.07927  -0.18842   0.04655  -0.24624
  0-1A  ->  9-1A    5.147589   41518.1   240.9  -15.05004  -0.16094   0.18606  -0.27282
  0-1A  -> 10-1A    5.187208   41837.7   239.0   -1.47769  -0.04944   0.00892   0.05350
  0-1A  -> 11-1A    5.225656   42147.8   237.3   -2.18230   0.00027   0.04325   0.10499
  0-1A  -> 12-1A    5.409810   43633.1   229.2   -7.69477   0.13086   0.39279   0.08185
  0-1A  -> 13-1A    5.549221   44757.5   223.4    0.13846  -0.03091  -0.03745   0.02091
  0-1A  -> 14-1A    5.628202   45394.5   220.3    0.51330   0.04429  -0.01804   0.05150
  0-1A  -> 15-1A    5.670956   45739.4   218.6   -0.37012   0.02183   0.00419  -0.04180
  0-1A  -> 16-1A    6.028609   48624.0   205.7   -0.42272   0.03600  -0.06085  -0.03709
  0-1A  -> 17-1A    6.064370   48912.4   204.4    0.61314   0.01425   0.04983  -0.02822
  0-1A  -> 18-1A    6.071341   48968.7   204.2    3.03336   0.01502   0.03242   0.07879

Total run time:      324.946 sec

           *** ORCA-CIS/TD-DFT FINISHED WITHOUT ERROR ***
-----------------------
CIS/TD-DFT TOTAL ENERGY
-----------------------

    E(SCF)  =   -999.713572882 Eh
    DE(CIS) =      0.131297682 Eh (Root  1)
    ----------------------------- ---------
    E(tot)  =   -999.582275200 Eh


Maximum memory used throughout the entire CIS-calculation: 713.7 MB
=> NOW LEAVING ORCA_CIS

-------------------------   --------------------
FINAL SINGLE POINT ENERGY      -999.582275200457
-------------------------   --------------------



           ************************************************************
           *        Program running with 4 parallel MPI-processes     *
           *              working on a common directory               *
           ************************************************************

------------------------------------------------------------------------------
                              ORCA PROPERTY CALCULATIONS
------------------------------------------------------------------------------

GBWName                                 ... td.gbw
Number of atoms                         ...     45
Number of basis functions               ...    432
Max core memory                         ...   2500 MB

Electric properties:
Dipole moment                           ... YES
Quadrupole moment                       ...  NO
Static polarizability (Dipole/Dipole)   ...  NO
Static polarizability (Dipole/Quad.)    ...  NO
Static polarizability (Quad./Quad.)     ...  NO
Static polarizability (Velocity)        ...  NO
Static hyperpolarizability              ...  NO

Atomic electric properties:
Dipole moment                           ...  NO
Quadrupole moment                       ...  NO
Static polarizability                   ...  NO

Choice of electric origin               ... Center of mass
Position of electric origin             ...     1.070667    -0.433682     0.304119

General magnetic properties:
Magnetizability                         ...  NO

EPR properties:
g-Tensor (aka g-matrix)                 ...  NO
Zero-Field splitting spin-orbit         ...  NO
Zero-field splitting spin-spin          ...  NO
Hyperfine couplings                     ...  NO (   0 nuclei)
Quadrupole couplings                    ...  NO (   0 nuclei)
Contact density                         ...  NO (   0 nuclei)

NMR properties:
Chemical shifts                         ...  NO (   0 nuclei)
Spin-rotation constants                 ...  NO (   0 nuclei)
Spin-spin couplings                     ...  NO (   0 nuclei,    0 pairs)

Choice of magnetic origin               ... GIAO
Position of magnetic origin             ...     0.000000     0.000000     0.000000

Properties with geometric perturbations:
SCF Hessian                             ...  NO
IR spectrum                             ...  NO
VCD spectrum                            ...  NO
X-ray spectroscopy properties:
SCF XES/XAS/RIXS spectra                ...  NO

SCF SOC stabilization energy            ...  NO
Diagonal Born-Oppenheimer correction    ...  NO

-------------
DIPOLE MOMENT
-------------

Method             : SCF
Type of density    : Electron Density
Multiplicity       :   1
Irrep              :   0
Energy             :  -999.7135728821320981 Eh
Basis              : AO
                                X                 Y                 Z
Electronic contribution:     23.836743646      -9.389269713       3.659467175
Nuclear contribution   :    -23.675690452      10.199349291      -3.605696265
                        -----------------------------------------
Total Dipole Moment    :      0.161053193       0.810079578       0.053770911
                        -----------------------------------------
Magnitude (a.u.)       :      0.827682526
Magnitude (Debye)      :      2.103801790



--------------------
Rotational spectrum 
--------------------
 
Rotational constants in cm-1:             0.016528             0.003561             0.003471 
Rotational constants in MHz :           495.502938           106.742598           104.056133 

Dipole components along the rotational axes: 
x,y,z [a.u.] :    -0.151509    -0.677389    -0.450830 
x,y,z [Debye]:    -0.385105    -1.721785    -1.145920 

 

Dipole moment calculation done in   0.0 sec 

Maximum memory used throughout the entire PROP-calculation: 24.0 MB

--------------------------------
SUGGESTED CITATIONS FOR THIS RUN
--------------------------------

Below you find a list of papers that are relevant to this ORCA run
We neither can nor want to force you to cite these papers, but we appreciate if you do
You receive ORCA, which is the product of decades of hard work by many enthusiastic individuals, for free
The only thing we kindly ask in return is that you cite our papers,
We deeply appreciate it, if you show your appreciation for ORCA by not just citing the generic ORCA reference.

Please note that relegating all ORCA citations to the supporting information does *not* help us.
SI sections are not indexed - citations you put there will not count into any citation statistics
But we need these citations in order to attract the funding resources that allow us to do what we are doing

Therefore, if you are a happy ORCA user, please consider citing a few of the papers listed below in the main body of your paper

In addition to the list printed below, the program has created the file td.bibtex that contains the list in bibtex format
You can import this file easily into all common literature databanks and citation aid programs

It goes without saying that in many instances, there are alternative algorithms to achieve similar
results as the ones you have gotten from ORCA. It is, of course, also the case that in some instances
ORCA just re-implements algorithms worked out by others. We are fully aware of that and we are also
fully appreciative of our colleagues work. Hence this citation list should not be read as indicating
that the listed papers, which are focused on our own work, are the only ones worth citing. It simply
meant to make it easier for users to cite ORCA specific papers. It is not a substitute for doing your
own literature research and citing the relevant literature in a scientifically appropriate manner.

List of essential papers. We consider these as the minimum necessary citations

  1. Neese, F.
     Software update: the ORCA program system, version 6.0
     WIRES Comput. Molec. Sci. 2025 15(1), e70019
     doi.org/10.1002/wcms.70019

List of papers to cite with high priority. The work reported in these papers was absolutely
necessary for this run to complete.
Our perspective: the developers of density functionals and basis sets usually get cited in chemistry papers
Good! But without the algorithms to do something with them, the functionals or basis sets would not do anything.
Hence, in our opinion, the algorithm design and method developments papers are equally worthy of getting cited

  1. Neese, F.; Olbrich, G.
     Efficient use of the resolution of the identity approximation in time-dependent density functional calculations with hybrid density functionals
     Chem. Phys. Lett. 2002 362 , 170-178
     doi.org/10.1016/s0009-2614(02)01053-9
  2. Neese, F.
     An improvement of the resolution of the identity approximation for the formation of the Coulomb matrix
     J. Comp. Chem. 2003 24(14), 1740-1747
     doi.org/10.1002/jcc.10318
  3. Neese, F.; Wennmohs, F.; Hansen, A.; Becker, U.
     Efficient, approximate and parallel Hartree-Fock and hybrid DFT calculations. A 'chain-of-spheres' algorithm for the Hartree-Fock exchange
     Chem. Phys. 2009 356(1-3), 98-109
     doi.org/10.1016/j.chemphys.2008.10.036
  4. Helmich-Paris, B.; de Souza, B.; Neese, F.; Izsák, R.
     An improved chain of spheres for exchange algorithm
     J. Chem. Phys. 2021 155(10), 104109
     doi.org/10.1063/5.0058766
  5. Neese, F.
     The SHARK Integral Generation and Digestion System
     J. Comp. Chem. 2022 44(3), 381
     doi.org/10.1002/jcc.26942

List of suggested additional citations. These are papers that are important in the 'surrounding' of 
of this run, or papers that preceded the highly important papers. If you like your results we are grateful for a citation.

  1. Izsak, R.; Neese, F.
     An overlap fitted chain of spheres exchange method
     J. Chem. Phys. 2011 135 , 144105
     doi.org/10.1063/1.3646921
  2. Izsak, R.; Hansen, A.; Neese, F.
     The resolution of identity and chain of spheres approximations for the LPNO-CCSD singles Fock term
     Molec. Phys. 2012 110 , 2413-2417
     doi.org/10.1080/00268976.2012.687466
  3. Neese, F.
     The ORCA program system
     WIRES Comput. Molec. Sci. 2012 2(1), 73-78
     doi.org/10.1002/wcms.81
  4. Izsak, R.; Neese, F.; Klopper, W.
     Robust fitting techniques in the chain of spheres approximation to the Fock exchange: The role of the complementary space
     J. Chem. Phys. 2013 139 , 
     doi.org/10.1063/1.4819264
  5. Neese, F.
     Software update: the ORCA program system, version 4.0
     WIRES Comput. Molec. Sci. 2018 8(1), 1-6
     doi.org/10.1002/wcms.1327
  6. Neese, F.; Wennmohs, F.; Becker, U.; Riplinger, C.
     The ORCA quantum chemistry program package
     J. Chem. Phys. 2020 152(22), 224108
     doi.org/10.1063/5.0004608
  7. Neese, F.
     Software update: The ORCA program system—Version 5.0
     WIRES Comput. Molec. Sci. 2022 12(1), e1606
     doi.org/10.1002/wcms.1606

List of optional additional citations

  1. Neese, F.
     Approximate second-order SCF convergence for spin unrestricted wavefunctions
     Chem. Phys. Lett. 2000 325(1-3), 93-98
     doi.org/10.1016/s0009-2614(00)00662-x

Timings for individual modules:

Sum of individual times          ...      443.716 sec (=   7.395 min)
Startup calculation              ...        4.650 sec (=   0.077 min)   1.0 %
SCF iterations                   ...      113.149 sec (=   1.886 min)  25.5 %
Property integrals               ...        0.485 sec (=   0.008 min)   0.1 %
Property calculations            ...        0.245 sec (=   0.004 min)   0.1 %
CIS module                       ...      325.187 sec (=   5.420 min)  73.3 %
                             ****ORCA TERMINATED NORMALLY****
TOTAL RUN TIME: 0 days 0 hours 7 minutes 24 seconds 302 msec
