
                                 *****************
                                 * O   R   C   A *
                                 *****************

                                            #,                                       
                                            ###                                      
                                            ####                                     
                                            #####                                    
                                            ######                                   
                                           ########,                                 
                                     ,,################,,,,,                         
                               ,,#################################,,                 
                          ,,##########################################,,             
                       ,#########################################, ''#####,          
                    ,#############################################,,   '####,        
                  ,##################################################,,,,####,       
                ,###########''''           ''''###############################       
              ,#####''   ,,,,##########,,,,          '''####'''          '####       
            ,##' ,,,,###########################,,,                        '##       
           ' ,,###''''                  '''############,,,                           
         ,,##''                                '''############,,,,        ,,,,,,###''
      ,#''                                            '''#######################'''  
     '                                                          ''''####''''         
             ,#######,   #######,   ,#######,      ##                                
            ,#'     '#,  ##    ##  ,#'     '#,    #''#        ,####,    ,#,          
            ##       ##  ##   ,#'  ##            #'  '#       #'       ,# #          
            ##       ##  #######   ##           ,######,      #####,      #          
            '#,     ,#'  ##    ##  '#,     ,#' ,#      #,     #,   #      #          
             '#######'   ##     ##  '#######'  #'      '#     '####' #    #          



                #########################################################
                #                        -***-                          #
                #          Department of theory and spectroscopy        #
                #                                                       #
                #                      Frank Neese                      #
                #                                                       #
                #     Directorship, Architecture, Infrastructure        #
                #                    SHARK, DRIVERS                     #
                #        Core code/Algorithms in most modules           #
                #                                                       #
                #        Max Planck Institute fuer Kohlenforschung      #
                #                Kaiser Wilhelm Platz 1                 #
                #                 D-45470 Muelheim/Ruhr                 #
                #                      Germany                          #
                #                                                       #
                #                  All rights reserved                  #
                #                        -***-                          #
                #########################################################


                         Program Version 6.1.1  -  RELEASE   -


 With contributions from (in alphabetic order):
[Max-Planck-Institut fuer Kohlenforschung]                               
  Daniel Aravena         : Magnetic Suceptibility                        
  Michael Atanasov       : Ab Initio Ligand Field Theory (pilot matlab implementation)
  Alexander A. Auer      : GIAO ZORA, VPT2 properties, NMR spectrum      
  Ute Becker             : All parallelization in ORCA, NUMFREQ, NUMCALC 
  Giovanni Bistoni       : ED, misc. LED, open-shell LED, HFLD           
  Dmytro Bykov           : pre 5.0 version of the SCF Hessian            
  Marcos Casanova-Páez   : Triplet and SCS-CIS(D). UHF-(DLPNO)-IP/EA/STEOM-CCSD. UHF-CVS-IP/STEOM-CCSD   
  Vijay G. Chilkuri      : MRCI spin determinant printing, contributions to CSF-ICE 
  Pauline Colinet        : FMM embedding                                 
  Dipayan Datta          : RHF DLPNO-CCSD density                        
  Achintya Kumar Dutta   : EOM-CC, STEOM-CC                              
  Nicolas Foglia         : Exact transition moments, OPA infrastructure, MCD improvements    
  Dmitry Ganyushin       : Spin-Orbit,Spin-Spin,Magnetic field MRCI      
  Miquel Garcia-Rates    : C-PCM and meta-GGA Hessian, CCSD/C-PCM, Gaussian charge scheme 
  Tiago L. C. Gouveia    : GS-ROHF, GS-ROCIS                             
  Yang Guo               : DLPNO-NEVPT2, F12-NEVPT2, CIM, IAO-localization        
  Andreas Hansen         : Spin unrestricted coupled pair/coupled cluster methods 
  Ingolf Harden          : AUTO-CI MPn and infrastructure                
  Benjamin Helmich-Paris : MC-RPA, TRAH-(SCF,CASSCF), AVAS, COSX integrals, SCF dyn. polar., MC-PDFT, srDFT 
  Lee Huntington         : MR-EOM, pCC                                   
  Robert Izsak           : Overlap fitted RIJCOSX, COSX-SCS-MP3, EOM     
  Riya Kayal             : Wick's Theorem for AUTO-CI, AUTO-CI UHF-CCSDT 
  Emily Kempfer          : AUTO-CI RHF CISDT and CCSDT, approximate NEVPT4
  Christian Kollmar      : KDIIS, OOCD, Brueckner-CCSD(T), CCSD density, CASPT2, CASPT2-K, improved NEVPT2 
  Axel Koslowski         : Symmetry handling                             
  Simone Kossmann        : meta-GGA functionals, TD-DFT gradient, OOMP2, (MP2 Hessian; deprecated post 5.0) 
  Lucas Lang             : DCDCAS, Hyperfine gauge corrections, ICE-SOC+SSC
  Marvin Lechner         : AUTO-CI (C++ implementation), FIC-MRCC        
  Spencer Leger          : CASSCF response                               
  Dagmar Lenk            : GEPOL surface, SMD, ORCA-2-JSON               
  Dimitrios Liakos       : Extrapolation schemes; Compound Job, Property file
  Dimitrios Manganas     : Further ROCIS development; embedding schemes. LFT, Crystal Embedding 
  Dimitrios Pantazis     : SARC Basis sets                               
  Anastasios Papadopoulos: AUTO-CI, single reference methods and gradients 
  Taras Petrenko         : pre 6.0 DFT Hessian and TD-DFT gradient,  ECA, NRVS 
  Petra Pikulova         : Analytic Raman intensities                    
  Peter Pinski           : DLPNO-MP2, DLPNO-MP2 Gradient                 
  Shashank Vittal Rao    : ES-AILFT, MagRelax                            
  Christoph Reimann      : Effective Core Potentials                     
  Marius Retegan         : Local ZFS, SOC                                
  Christoph Riplinger    : Optimizer, TS searches, QM/MM, DLPNO-CCSD(T), (RO)-DLPNO pert. Triples 
  Michael Roemelt        : Original ROCIS implementation, recursive CI coupling coefficients
  Masaaki Saitow         : Open-shell DLPNO-CCSD energy and density      
  Barbara Sandhoefer     : DKH picture change effects                    
  Yorick L. A. Schmerwitz: GMF and freeze-and-release deltaSCF, NEB S-IDPP initial path                    
  Kantharuban Sivalingam : CASSCF convergence/infrastructure, NEVPT2, NEVPT3, NEVPT4(SD), FIC-MRCI and CEPA variants
  Bernardo de Souza      : ESD, SOC TD-DFT                               
  Georgi L. Stoychev     : AutoAux, RI-MP2 NMR, DLPNO-MP2 response, X2C  
  Van Anh Tran           : RI-MP2 g-tensors                              
  Willem Van den Heuvel  : Paramagnetic NMR                              
  Zikuan Wang            : NOTCH, Electric field optimization            
  Frank Wennmohs         : Technical directorship and infrastructure     
  Hang Xu                : AUTO-CI-Response properties                   
                                                                         
[FACCTs GmbH]                                                            
  Markus Bursch, Nicolas Foglia, Miquel Garcia-Rates, Ingolf Harden, Hagen Neugebauer, Anastasios Papadopoulos, 
  Christoph Riplinger, Bernardo de Souza, Georgi L. Stoychev                                                    
                                                                 
  APM, various basis sets, CI-OPT, improved COSX, DLPNO-Multilevel,           
  DOCKER, DRACO, updates on ESD, Fragmentator, GOAT, IRC, LR-CPCM, L-BFGS, MBIS, meta-GGA TD-DFT gradient, ML-optimized integration grids, 
  MM, NACMEs, nearIR, NEB, NEB-TS, NL-DFT gradient (VV10), 2- and 3-layer-ONIOM, interface openCOSMO-RS, QMMM,   
  Crystal-QMMM, RESP, rigid body optimization, SF, symmetry and pop. for TD-DFT, various functionals, SOLVATOR                                   
                                                                         
[Other institutions]                                                     
  V. Asgeirsson          : NEB                                           
  Christoph Bannwarth    : sTDA-DFT, sTD-DFT, PBEh-3c, B97-3c, D3        
  Giovanni Bistoni       : ETS/NOCV, ADLD/ADEX, COVALED                  
  Martin Brehm           : Molecular dynamics                            
  Ronald Cardenas        : ETS/NOCV                                      
  Martina Colucci        : COVALED                                       
  Sebastian Ehlert       : rSCAN, r2SCAN, r2SCAN-3c, D4, dhf basis sets  
  Marvin Friede          : D4 for Fr, Ra, Ac-Lr                          
  Lars Goerigk           : TD-DFT with DH, B97 family of functionals     
  Stefan Grimme          : VdW corrections, initial TS optimization, DFT functionals, gCP, sTDA/sTD-DF 
  Waldemar Hujo          : DFT-NL                                        
  H. Jonsson             : NEB                                           
  Holger Kruse           : gCP                                           
  Marcel Mueller         : wB97X-3c, vDZP basis set                      
  Hagen Neugebauer       : wr2SCAN, Native XTB                           
  Gianluca Regni         : ADLD/ADEX                                     
  Tobias Risthaus        : pre 6.0 range-separated hybrid DFT and stability analysis
  Lukas Wittmann         : regularized MP2, r2SCAN double-hybrids, wr2SCAN        
                                                                         
We gratefully acknowledge several colleagues who have allowed us to      
interface, adapt or use parts of their codes:                            
  Ed Valeev, F. Pavosevic, A. Kumar             : LibInt (2-el integral package), F12 methods 
  Garnet Chan, S. Sharma, J. Yang, R. Olivares  : DMRG                   
  Ulf Ekstrom                                   : XCFun DFT Library      
  Mihaly Kallay                                 : mrcc  (arbitrary order and MRCC methods)
  Frank Weinhold                                : gennbo (NPA and NBO analysis)           
  Simon Mueller                                 : openCOSMO-RS                            
  Christopher J. Cramer and Donald G. Truhlar   : smd solvation model                     
  S Lehtola, MJT Oliveira, MAL Marques          : LibXC Library                           
  Liviu Ungur et al                             : ANISO software                          


 Your calculation uses the libint2 library for the computation of 2-el integrals
 For citations please refer to: http://libint.valeyev.net

 Your ORCA version has been built with support for libXC version: 7.0.0
 For citations please refer to: https://libxc.gitlab.io

 This ORCA versions uses:
   CBLAS   interface :  Fast vector & matrix operations
   LAPACKE interface :  Fast linear algebra routines
   Shared memory     :  Shared parallel matrices


  ***********************************
  * Starting time: Thu Jul 23 14:44:05 2026
  * Host name:     DESKTOP-19Q153E
  * Process ID:    45216
  * Working dir.:  C:\Users\ysm04\Documents\etc\uv_vis\molecules\dhhb\calculations\02_tddft_orca\dhhb\dhhb_c131\b3lyp_631+gd\none\dftopt
  ***********************************

NOTE: MaxCore=2500 MB was set to SCF,MP2,MDCI,CIPSI,MRCI,RASCI and CIS
      => If you want to overwrite this, your respective input block should be placed after the MaxCore statement
================================================================================

----- Orbital basis set information -----
Your calculation utilizes the basis: 6-31+G(d)
   H-He, Li-Ne : W. J. Hehre, R. Ditchfield and J.A. Pople, J. Chem. Phys. 56, 2257 (1972).
                 Note: He and Ne are unpublished basis sets taken from the Gaussian program.
                 Note: Li and B from J. D. Dill and J. A. Pople, J. Chem. Phys. 62, 2921 (1975).
   Na - Ar     : M. M. Francl, W. J. Pietro, W. J. Hehre, J. S. Binkley, M. S. Gordon, 
                 D. J. DeFrees and J. A. Pople, J. Chem. Phys. 77, 3654 (1982).
   K - Zn      : V. A. Rassolov, J. A. Pople, M. A. Ratner, and T. L. Windus, J. Chem. Phys. 109, 1223 (1998).
   Additional Pol./Diff. from the 6-311G equivalent.

----- AuxJ basis set information -----
Your calculation utilizes the auxiliary basis: def2/J
   H-Rn: F. Weigend, Phys. Chem. Chem. Phys. 8, 1057 (2006).
   Fr-Lr: K. Eichkorn, F. Weigend, O. Treutler, R. Ahlrichs; Theor. Chem. Acc. 97, 119 (1997).

================================================================================
                                        WARNINGS
                       Please study these warnings very carefully!
================================================================================


WARNING: CIS/ROCIS methods need fully converged wavefunctions
  ===> : Setting SCFConvForced true
         You can overwrite this default with %scf ConvForced false 


================================================================================
                                       INPUT FILE
================================================================================
NAME = td.inp
|  1> # dhhb / dhhb_c131 / b3lyp_631+gd / solvent=none
|  2> ! B3LYP 6-31+G(d) RIJCOSX def2/J TightSCF
|  3> %pal nprocs 4 end
|  4> %maxcore 2500
|  5> %scf
|  6>   MaxIter 300
|  7> end
|  8> %tddft
|  9>   nroots 22
| 10>   tda    true
| 11>   maxdim 5
| 12> end
| 13> * xyz 0 1
| 14> C      7.6142257245     2.0836866729    -0.0492499745
| 15> C      8.6093409730     0.9195423295    -0.0800952432
| 16> C      7.9826119352    -0.4579632506    -0.3467106696
| 17> C      7.0723697184    -0.9727050912     0.7767739453
| 18> C      6.4971296345    -2.3771709614     0.5368507306
| 19> C      5.4557912596    -2.4754671098    -0.5658640784
| 20> O      4.2861675984    -1.7317235095    -0.1550400704
| 21> C      3.2862227351    -1.6097312104    -1.0348777733
| 22> O      3.3235563551    -2.0728727813    -2.1579168351
| 23> C      2.1213125628    -0.8466762791    -0.4864304037
| 24> C      1.0261719479    -0.6090427569    -1.3313892959
| 25> C     -0.0918864290     0.0813129848    -0.8629751589
| 26> C     -0.1304658097     0.5549181719     0.4606717630
| 27> C      0.9808790872     0.3384525491     1.2957468962
| 28> C      2.0907696127    -0.3665708218     0.8344544906
| 29> C     -1.2707020120     1.3767210859     0.9964498654
| 30> O     -0.9674908340     2.4124970458     1.6321037747
| 31> C     -2.6552624389     0.9881982865     0.7996467734
| 32> C     -3.0695486258    -0.2497754203     0.2401539105
| 33> C     -4.3950105568    -0.5818296073     0.0618925976
| 34> C     -5.4398257075     0.3253415732     0.4447428603
| 35> C     -5.0428481458     1.5581059067     1.0226244033
| 36> C     -3.6998568739     1.8820861525     1.2170538578
| 37> O     -3.4098749363     3.0518897273     1.7982088198
| 38> N     -6.7591825490     0.0007366075     0.2809381258
| 39> C     -7.1659173549    -1.2724030286    -0.3251539684
| 40> C     -7.1514832424    -1.2931052368    -1.8569344799
| 41> C     -7.8240985821     0.9389864407     0.6511824494
| 42> C     -8.1226339609     2.0235136936    -0.3895658195
| 43> H      7.0556701963     2.1544152474    -0.9988718852
| 44> H      6.8752231053     1.9762167353     0.7618149100
| 45> H      8.1317505001     3.0451018844     0.1039678770
| 46> H      9.1651382606     0.8845601419     0.8756222516
| 47> H      9.3655934505     1.1174999258    -0.8605360611
| 48> H      7.4219586185    -0.4156755967    -1.2990404414
| 49> H      8.7928228147    -1.1931105437    -0.5054159610
| 50> H      6.2398404855    -0.2683035696     0.9448298739
| 51> H      7.6498265196    -0.9908448037     1.7184305333
| 52> H      7.3123746537    -3.0755990112     0.2766583168
| 53> H      6.0472682444    -2.7607296096     1.4688637675
| 54> H      5.1573397894    -3.5215624473    -0.7417920427
| 55> H      5.8143150936    -2.0668699187    -1.5233121329
| 56> H      1.0626103966    -0.9697384550    -2.3611872533
| 57> H     -0.9264304671     0.2732929319    -1.5401200948
| 58> H      0.9639922656     0.7243608716     2.3172698535
| 59> H      2.9386163572    -0.5455016285     1.4969847303
| 60> H     -2.3145249858    -0.9822591276    -0.0490391149
| 61> H     -4.6327086488    -1.5496514968    -0.3745295848
| 62> H     -5.7708114697     2.2988403846     1.3476370176
| 63> H     -2.4130407585     3.0729475282     1.8881812584
| 64> H     -6.5297561269    -2.0800043503     0.0690348481
| 65> H     -8.1826675985    -1.4872956852     0.0354319681
| 66> H     -7.8480725690    -0.5496751048    -2.2743903548
| 67> H     -6.1464703318    -1.0810661652    -2.2544978620
| 68> H     -7.4573568533    -2.2881070497    -2.2195759337
| 69> H     -8.7308575296     0.3421431456     0.8284501041
| 70> H     -7.5738231219     1.4040134764     1.6177948047
| 71> H     -8.9232990609     2.6842671165    -0.0189847737
| 72> H     -7.2373244807     2.6460906577    -0.5926015153
| 73> H     -8.4576578338     1.5832923534    -1.3415092043
| 74> *
| 75> 
| 76>                          ****END OF INPUT****
================================================================================

                       ****************************
                       * Single Point Calculation *
                       ****************************

---------------------------------
CARTESIAN COORDINATES (ANGSTROEM)
---------------------------------
  C      7.614226    2.083687   -0.049250
  C      8.609341    0.919542   -0.080095
  C      7.982612   -0.457963   -0.346711
  C      7.072370   -0.972705    0.776774
  C      6.497130   -2.377171    0.536851
  C      5.455791   -2.475467   -0.565864
  O      4.286168   -1.731724   -0.155040
  C      3.286223   -1.609731   -1.034878
  O      3.323556   -2.072873   -2.157917
  C      2.121313   -0.846676   -0.486430
  C      1.026172   -0.609043   -1.331389
  C     -0.091886    0.081313   -0.862975
  C     -0.130466    0.554918    0.460672
  C      0.980879    0.338453    1.295747
  C      2.090770   -0.366571    0.834454
  C     -1.270702    1.376721    0.996450
  O     -0.967491    2.412497    1.632104
  C     -2.655262    0.988198    0.799647
  C     -3.069549   -0.249775    0.240154
  C     -4.395011   -0.581830    0.061893
  C     -5.439826    0.325342    0.444743
  C     -5.042848    1.558106    1.022624
  C     -3.699857    1.882086    1.217054
  O     -3.409875    3.051890    1.798209
  N     -6.759183    0.000737    0.280938
  C     -7.165917   -1.272403   -0.325154
  C     -7.151483   -1.293105   -1.856934
  C     -7.824099    0.938986    0.651182
  C     -8.122634    2.023514   -0.389566
  H      7.055670    2.154415   -0.998872
  H      6.875223    1.976217    0.761815
  H      8.131751    3.045102    0.103968
  H      9.165138    0.884560    0.875622
  H      9.365593    1.117500   -0.860536
  H      7.421959   -0.415676   -1.299040
  H      8.792823   -1.193111   -0.505416
  H      6.239840   -0.268304    0.944830
  H      7.649827   -0.990845    1.718431
  H      7.312375   -3.075599    0.276658
  H      6.047268   -2.760730    1.468864
  H      5.157340   -3.521562   -0.741792
  H      5.814315   -2.066870   -1.523312
  H      1.062610   -0.969738   -2.361187
  H     -0.926430    0.273293   -1.540120
  H      0.963992    0.724361    2.317270
  H      2.938616   -0.545502    1.496985
  H     -2.314525   -0.982259   -0.049039
  H     -4.632709   -1.549651   -0.374530
  H     -5.770811    2.298840    1.347637
  H     -2.413041    3.072948    1.888181
  H     -6.529756   -2.080004    0.069035
  H     -8.182668   -1.487296    0.035432
  H     -7.848073   -0.549675   -2.274390
  H     -6.146470   -1.081066   -2.254498
  H     -7.457357   -2.288107   -2.219576
  H     -8.730858    0.342143    0.828450
  H     -7.573823    1.404013    1.617795
  H     -8.923299    2.684267   -0.018985
  H     -7.237324    2.646091   -0.592602
  H     -8.457658    1.583292   -1.341509

----------------------------
CARTESIAN COORDINATES (A.U.)
----------------------------
  NO LB      ZA    FRAG     MASS         X           Y           Z
   0 C     6.0000    0    12.011   14.388801    3.937597   -0.093069
   1 C     6.0000    0    12.011   16.269297    1.737683   -0.151358
   2 C     6.0000    0    12.011   15.084950   -0.865425   -0.655188
   3 C     6.0000    0    12.011   13.364842   -1.838146    1.467890
   4 C     6.0000    0    12.011   12.277796   -4.492202    1.014501
   5 C     6.0000    0    12.011   10.309951   -4.677955   -1.069328
   6 O     8.0000    0    15.999    8.099683   -3.272483   -0.292983
   7 C     6.0000    0    12.011    6.210061   -3.041951   -1.955636
   8 O     8.0000    0    15.999    6.280611   -3.917162   -4.077872
   9 C     6.0000    0    12.011    4.008700   -1.599986   -0.919220
  10 C     6.0000    0    12.011    1.939184   -1.150924   -2.515961
  11 C     6.0000    0    12.011   -0.173640    0.153659   -1.630787
  12 C     6.0000    0    12.011   -0.246545    1.048643    0.870543
  13 C     6.0000    0    12.011    1.853593    0.639583    2.448607
  14 C     6.0000    0    12.011    3.950982   -0.692718    1.576890
  15 C     6.0000    0    12.011   -2.401279    2.601626    1.883017
  16 O     8.0000    0    15.999   -1.828293    4.558959    3.084229
  17 C     6.0000    0    12.011   -5.017719    1.867424    1.511113
  18 C     6.0000    0    12.011   -5.800606   -0.472007    0.453825
  19 C     6.0000    0    12.011   -8.305366   -1.099499    0.116960
  20 C     6.0000    0    12.011  -10.279781    0.614806    0.840442
  21 C     6.0000    0    12.011   -9.529602    2.944393    1.932480
  22 C     6.0000    0    12.011   -6.991716    3.556627    2.299898
  23 O     8.0000    0    15.999   -6.443730    5.767236    3.398122
  24 N     7.0000    0    14.007  -12.773004    0.001392    0.530896
  25 C     6.0000    0    12.011  -13.541621   -2.404493   -0.614452
  26 C     6.0000    0    12.011  -13.514345   -2.443615   -3.509098
  27 C     6.0000    0    12.011  -14.785404    1.774427    1.230556
  28 C     6.0000    0    12.011  -15.349554    3.823887   -0.736173
  29 H     1.0000    0     1.008   13.333284    4.071255   -1.887594
  30 H     1.0000    0     1.008   12.992289    3.734508    1.439622
  31 H     1.0000    0     1.008   15.366781    5.754409    0.196471
  32 H     1.0000    0     1.008   17.319601    1.671576    1.654686
  33 H     1.0000    0     1.008   17.698407    2.111769   -1.626177
  34 H     1.0000    0     1.008   14.025469   -0.785513   -2.454831
  35 H     1.0000    0     1.008   16.616027   -2.254652   -0.955098
  36 H     1.0000    0     1.008   11.791590   -0.507020    1.785470
  37 H     1.0000    0     1.008   14.456077   -1.872425    3.247363
  38 H     1.0000    0     1.008   13.818385   -5.812040    0.522808
  39 H     1.0000    0     1.008   11.427681   -5.217023    2.775750
  40 H     1.0000    0     1.008    9.745960   -6.654789   -1.401784
  41 H     1.0000    0     1.008   10.987463   -3.905818   -2.878643
  42 H     1.0000    0     1.008    2.008043   -1.832540   -4.461997
  43 H     1.0000    0     1.008   -1.750700    0.516449   -2.910405
  44 H     1.0000    0     1.008    1.821681    1.368844    4.379005
  45 H     1.0000    0     1.008    5.553180   -1.030849    2.828891
  46 H     1.0000    0     1.008   -4.373818   -1.856201   -0.092670
  47 H     1.0000    0     1.008   -8.754551   -2.928417   -0.707758
  48 H     1.0000    0     1.008  -10.905253    4.344179    2.546665
  49 H     1.0000    0     1.008   -4.559986    5.807029    3.568145
  50 H     1.0000    0     1.008  -12.339451   -3.930639    0.130457
  51 H     1.0000    0     1.008  -15.463001   -2.810582    0.066957
  52 H     1.0000    0     1.008  -14.830708   -1.038735   -4.297975
  53 H     1.0000    0     1.008  -11.615146   -2.042919   -4.260384
  54 H     1.0000    0     1.008  -14.092362   -4.323896   -4.194391
  55 H     1.0000    0     1.008  -16.498930    0.646557    1.565544
  56 H     1.0000    0     1.008  -14.312451    2.653201    3.057189
  57 H     1.0000    0     1.008  -16.862591    5.072530   -0.035876
  58 H     1.0000    0     1.008  -13.676561    5.000387   -1.119855
  59 H     1.0000    0     1.008  -15.982657    2.991989   -2.535085

--------------------------------
INTERNAL COORDINATES (ANGSTROEM)
--------------------------------
 C      0   0   0     0.000000000000     0.00000000     0.00000000
 C      1   0   0     1.531808682789     0.00000000     0.00000000
 C      2   1   0     1.536683017288   114.82202751     0.00000000
 C      3   2   1     1.534834758411   114.55126875   292.77333611
 C      4   3   2     1.536550904993   114.47337311   182.61979378
 C      5   4   3     1.519877525927   115.39777696   289.96558795
 O      6   5   4     1.445666080869   108.35301126   293.85645928
 C      7   6   5     1.337492517409   117.70094411   175.06621576
 O      8   7   6     1.215364409635   123.37601974   358.86559044
 C      8   7   6     1.496684019735   112.78938100   178.74865030
 C     10   8   7     1.403480739727   118.23181380   177.73957952
 C     11  10   8     1.395011608552   120.46594025   179.11980076
 C     12  11  10     1.406353943969   120.30954921     0.40615913
 C     13  12  11     1.406874309883   119.02397078     0.89656763
 C     14  13  12     1.393450973509   120.69989951   358.23320371
 C     13  12  11     1.504179776990   122.68556383   176.17784881
 O     16  13  12     1.252527345003   116.68338826   227.60974194
 C     16  13  12     1.451443763434   121.90897413    48.11141672
 C     18  16  13     1.420297224887   124.40088058     7.73845053
 C     19  18  16     1.378000874206   122.79008704   180.34586758
 C     20  19  18     1.435678436667   120.88017977   359.82302742
 C     21  20  19     1.418184108000   117.01427538   359.29377989
 C     22  21  20     1.395131380496   121.87757720   359.85624454
 O     23  22  21     1.338010096227   118.17630774   181.57930239
 N     21  20  19     1.368540408616   121.31898575   180.49124879
 C     25  21  20     1.467537175676   121.49326942   358.36008958
 C     26  25  21     1.531988400883   114.96442109   277.93240214
 C     25  21  20     1.466778703899   121.19788168   181.08538924
 C     28  25  21     1.532475022275   115.00504648    81.26530752
 H      1   2   3     1.103978524526   111.10324115   302.04808390
 H      1   2   3     1.102497576206   112.09730704    62.28963672
 H      1   2   3     1.102554675416   111.13475619   182.36034020
 H      2   1   3     1.106133042730   109.45445671   236.98366730
 H      2   1   3     1.104623415424   108.83160144   121.80928521
 H      3   2   1     1.105916986693   108.77719361    56.34786198
 H      3   2   1     1.105473012484   108.79100408   171.22405975
 H      4   3   2     1.103417066391   110.17269046    59.42866584
 H      4   3   2     1.104763565721   108.62893723   303.76678371
 H      5   4   3     1.104593261919   109.78045957    51.06125662
 H      5   4   3     1.103694164098   109.77853338   167.51917202
 H      6   5   4     1.101970681927   111.27133954   174.85228207
 H      6   5   4     1.100998538231   112.57073212    54.02966509
 H     11  10   8     1.091747672421   119.07143734   358.96012093
 H     12  11  10     1.091716682950   119.43427663   178.85070650
 H     14  13  12     1.092117003992   119.24969696   178.62838000
 H     15  14  13     1.090782587990   120.06841687   181.21262489
 H     19  18  16     1.090974648816   119.19400901     1.36987486
 H     20  19  18     1.087954003636   118.45083201   179.94400264
 H     22  21  20     1.088233140070   121.74436464   180.47441425
 H     24  23  22     1.001107810736   105.85637599   177.15646958
 H     26  25  21     1.101047603819   109.16747130    42.12132406
 H     26  25  21     1.099991876935   106.87453028   156.19515336
 H     27  26  25     1.100997029327   111.34756154   298.85441034
 H     27  26  25     1.101393735748   111.52521711    59.68367532
 H     27  26  25     1.102313974117   109.78677338   179.28899785
 H     28  25  21     1.099935238630   106.98384973   203.03412127
 H     28  25  21     1.101466020960   109.06309072   317.22223975
 H     29  28  25     1.102265848032   109.71912416   180.71058286
 H     29  28  25     1.101180478273   111.63625565   300.25426568
 H     29  28  25     1.101014092392   111.31503774    61.20005784

---------------------------
INTERNAL COORDINATES (A.U.)
---------------------------
 C      0   0   0     0.000000000000     0.00000000     0.00000000
 C      1   0   0     2.894698900034     0.00000000     0.00000000
 C      2   1   0     2.903910057323   114.82202751     0.00000000
 C      3   2   1     2.900417354220   114.55126875   292.77333611
 C      4   3   2     2.903660401265   114.47337311   182.61979378
 C      5   4   3     2.872152281104   115.39777696   289.96558795
 O      6   5   4     2.731912973942   108.35301126   293.85645928
 C      7   6   5     2.527494564071   117.70094411   175.06621576
 O      8   7   6     2.296705887124   123.37601974   358.86559044
 C      8   7   6     2.828322906316   112.78938100   178.74865030
 C     10   8   7     2.652194232317   118.23181380   177.73957952
 C     11  10   8     2.636189893805   120.46594025   179.11980076
 C     12  11  10     2.657623801462   120.30954921     0.40615913
 C     13  12  11     2.658607150528   119.02397078     0.89656763
 C     14  13  12     2.633240720979   120.69989951   358.23320371
 C     13  12  11     2.842487834694   122.68556383   176.17784881
 O     16  13  12     2.366933657302   116.68338826   227.60974194
 C     16  13  12     2.742831211679   121.90897413    48.11141672
 C     18  16  13     2.683972783804   124.40088058     7.73845053
 C     19  18  16     2.604044264553   122.79008704   180.34586758
 C     20  19  18     2.713039061677   120.88017977   359.82302742
 C     21  20  19     2.679979571599   117.01427538   359.29377989
 C     22  21  20     2.636416229977   121.87757720   359.85624454
 O     23  22  21     2.528472646291   118.17630774   181.57930239
 N     21  20  19     2.586166575489   121.31898575   180.49124879
 C     25  21  20     2.773243353376   121.49326942   358.36008958
 C     26  25  21     2.895038518012   114.96442109   277.93240214
 C     25  21  20     2.771810049437   121.19788168   181.08538924
 C     28  25  21     2.895958099174   115.00504648    81.26530752
 H      1   2   3     2.086217069085   111.10324115   302.04808390
 H      1   2   3     2.083418482342   112.09730704    62.28963672
 H      1   2   3     2.083526384211   111.13475619   182.36034020
 H      2   1   3     2.090288518441   109.45445671   236.98366730
 H      2   1   3     2.087435736267   108.83160144   121.80928521
 H      3   2   1     2.089880231701   108.77719361    56.34786198
 H      3   2   1     2.089041242036   108.79100408   171.22405975
 H      4   3   2     2.085156066974   110.17269046    59.42866584
 H      4   3   2     2.087700581948   108.62893723   303.76678371
 H      5   4   3     2.087378754402   109.78045957    51.06125662
 H      5   4   3     2.085679705752   109.77853338   167.51917202
 H      6   5   4     2.082422796452   111.27133954   174.85228207
 H      6   5   4     2.080585711104   112.57073212    54.02966509
 H     11  10   8     2.063104108222   119.07143734   358.96012093
 H     12  11  10     2.063045546609   119.43427663   178.85070650
 H     14  13  12     2.063802043744   119.24969696   178.62838000
 H     15  14  13     2.061280362951   120.06841687   181.21262489
 H     19  18  16     2.061643305313   119.19400901     1.36987486
 H     20  19  18     2.055935113174   118.45083201   179.94400264
 H     22  21  20     2.056462604590   121.74436464   180.47441425
 H     24  23  22     1.891819592820   105.85637599   177.15646958
 H     26  25  21     2.080678431628   109.16747130    42.12132406
 H     26  25  21     2.078683396945   106.87453028   156.19515336
 H     27  26  25     2.080582859689   111.34756154   298.85441034
 H     27  26  25     2.081332526180   111.52521711    59.68367532
 H     27  26  25     2.083071524675   109.78677338   179.28899785
 H     28  25  21     2.078576366060   106.98384973   203.03412127
 H     28  25  21     2.081469125434   109.06309072   317.22223975
 H     29  28  25     2.082980579555   109.71912416   180.71058286
 H     29  28  25     2.080929527956   111.63625565   300.25426568
 H     29  28  25     2.080615104208   111.31503774    61.20005784

---------------------
BASIS SET INFORMATION
---------------------
There are 4 groups of distinct atoms

 Group   1 Type C   : 11s5p1d contracted to 4s3p1d pattern {6311/311/1}
 Group   2 Type O   : 11s5p1d contracted to 4s3p1d pattern {6311/311/1}
 Group   3 Type N   : 11s5p1d contracted to 4s3p1d pattern {6311/311/1}
 Group   4 Type H   : 4s contracted to 2s pattern {31}

Atom   0C    basis set group =>   1
Atom   1C    basis set group =>   1
Atom   2C    basis set group =>   1
Atom   3C    basis set group =>   1
Atom   4C    basis set group =>   1
Atom   5C    basis set group =>   1
Atom   6O    basis set group =>   2
Atom   7C    basis set group =>   1
Atom   8O    basis set group =>   2
Atom   9C    basis set group =>   1
Atom  10C    basis set group =>   1
Atom  11C    basis set group =>   1
Atom  12C    basis set group =>   1
Atom  13C    basis set group =>   1
Atom  14C    basis set group =>   1
Atom  15C    basis set group =>   1
Atom  16O    basis set group =>   2
Atom  17C    basis set group =>   1
Atom  18C    basis set group =>   1
Atom  19C    basis set group =>   1
Atom  20C    basis set group =>   1
Atom  21C    basis set group =>   1
Atom  22C    basis set group =>   1
Atom  23O    basis set group =>   2
Atom  24N    basis set group =>   3
Atom  25C    basis set group =>   1
Atom  26C    basis set group =>   1
Atom  27C    basis set group =>   1
Atom  28C    basis set group =>   1
Atom  29H    basis set group =>   4
Atom  30H    basis set group =>   4
Atom  31H    basis set group =>   4
Atom  32H    basis set group =>   4
Atom  33H    basis set group =>   4
Atom  34H    basis set group =>   4
Atom  35H    basis set group =>   4
Atom  36H    basis set group =>   4
Atom  37H    basis set group =>   4
Atom  38H    basis set group =>   4
Atom  39H    basis set group =>   4
Atom  40H    basis set group =>   4
Atom  41H    basis set group =>   4
Atom  42H    basis set group =>   4
Atom  43H    basis set group =>   4
Atom  44H    basis set group =>   4
Atom  45H    basis set group =>   4
Atom  46H    basis set group =>   4
Atom  47H    basis set group =>   4
Atom  48H    basis set group =>   4
Atom  49H    basis set group =>   4
Atom  50H    basis set group =>   4
Atom  51H    basis set group =>   4
Atom  52H    basis set group =>   4
Atom  53H    basis set group =>   4
Atom  54H    basis set group =>   4
Atom  55H    basis set group =>   4
Atom  56H    basis set group =>   4
Atom  57H    basis set group =>   4
Atom  58H    basis set group =>   4
Atom  59H    basis set group =>   4
---------------------------------
AUXILIARY/J BASIS SET INFORMATION
---------------------------------
There are 4 groups of distinct atoms

 Group   1 Type C   : 12s5p4d2f1g contracted to 6s4p3d1f1g pattern {711111/2111/211/2/1}
 Group   2 Type O   : 12s5p4d2f1g contracted to 6s4p3d1f1g pattern {711111/2111/211/2/1}
 Group   3 Type N   : 12s5p4d2f1g contracted to 6s4p3d1f1g pattern {711111/2111/211/2/1}
 Group   4 Type H   : 5s2p1d contracted to 3s1p1d pattern {311/2/1}

Atom   0C    basis set group =>   1
Atom   1C    basis set group =>   1
Atom   2C    basis set group =>   1
Atom   3C    basis set group =>   1
Atom   4C    basis set group =>   1
Atom   5C    basis set group =>   1
Atom   6O    basis set group =>   2
Atom   7C    basis set group =>   1
Atom   8O    basis set group =>   2
Atom   9C    basis set group =>   1
Atom  10C    basis set group =>   1
Atom  11C    basis set group =>   1
Atom  12C    basis set group =>   1
Atom  13C    basis set group =>   1
Atom  14C    basis set group =>   1
Atom  15C    basis set group =>   1
Atom  16O    basis set group =>   2
Atom  17C    basis set group =>   1
Atom  18C    basis set group =>   1
Atom  19C    basis set group =>   1
Atom  20C    basis set group =>   1
Atom  21C    basis set group =>   1
Atom  22C    basis set group =>   1
Atom  23O    basis set group =>   2
Atom  24N    basis set group =>   3
Atom  25C    basis set group =>   1
Atom  26C    basis set group =>   1
Atom  27C    basis set group =>   1
Atom  28C    basis set group =>   1
Atom  29H    basis set group =>   4
Atom  30H    basis set group =>   4
Atom  31H    basis set group =>   4
Atom  32H    basis set group =>   4
Atom  33H    basis set group =>   4
Atom  34H    basis set group =>   4
Atom  35H    basis set group =>   4
Atom  36H    basis set group =>   4
Atom  37H    basis set group =>   4
Atom  38H    basis set group =>   4
Atom  39H    basis set group =>   4
Atom  40H    basis set group =>   4
Atom  41H    basis set group =>   4
Atom  42H    basis set group =>   4
Atom  43H    basis set group =>   4
Atom  44H    basis set group =>   4
Atom  45H    basis set group =>   4
Atom  46H    basis set group =>   4
Atom  47H    basis set group =>   4
Atom  48H    basis set group =>   4
Atom  49H    basis set group =>   4
Atom  50H    basis set group =>   4
Atom  51H    basis set group =>   4
Atom  52H    basis set group =>   4
Atom  53H    basis set group =>   4
Atom  54H    basis set group =>   4
Atom  55H    basis set group =>   4
Atom  56H    basis set group =>   4
Atom  57H    basis set group =>   4
Atom  58H    basis set group =>   4
Atom  59H    basis set group =>   4


           ************************************************************
           *        Program running with 4 parallel MPI-processes     *
           *              working on a common directory               *
           ************************************************************
------------------------------------------------------------------------------
                             ORCA STARTUP CALCULATIONS
                           -- RI-GTO INTEGRALS CHOSEN --
------------------------------------------------------------------------------
------------------------------------------------------------------------------
                   ___                                                        
                  /   \      - P O W E R E D   B Y -                         
                 /     \                                                     
                 |  |  |   _    _      __       _____    __    __             
                 |  |  |  | |  | |    /  \     |  _  \  |  |  /  |          
                  \  \/   | |  | |   /    \    | | | |  |  | /  /          
                 / \  \   | |__| |  /  /\  \   | |_| |  |  |/  /          
                |  |  |   |  __  | /  /__\  \  |    /   |      \           
                |  |  |   | |  | | |   __   |  |    \   |  |\   \          
                \     /   | |  | | |  |  |  |  | |\  \  |  | \   \       
                 \___/    |_|  |_| |__|  |__|  |_| \__\ |__|  \__/        
                                                                              
                      - O R C A' S   B I G   F R I E N D -                    
                                      &                                       
                       - I N T E G R A L  F E E D E R -                       
                                                                              
 v1 FN, 2020, v2 2021, v3 2022-2024                                           
------------------------------------------------------------------------------


----------------------
SHARK INTEGRAL PACKAGE
----------------------

Number of atoms                             ...     60
Number of basis functions                   ...    584
Number of shells                            ...    294
Maximum angular momentum                    ...      2
Integral batch strategy                     ... SHARK/LIBINT Hybrid
RI-J (if used) integral strategy            ... SPLIT-RIJ (Revised 2003 algorithm where possible)
Printlevel                                  ...      1
Contraction scheme used                     ... SEGMENTED contraction
Prescreening option                         ... SCHWARTZ
   Thresh                                   ... 2.500e-11
   Tcut                                     ... 2.500e-12
   Tpresel                                  ... 2.500e-12 
Coulomb Range Separation                    ... NOT USED
Exchange Range Separation                   ... NOT USED
Multipole approximations                    ... NOT USED
Finite Nucleus Model                        ... NOT USED
CABS basis                                  ... NOT available
Auxiliary Coulomb fitting basis             ... AVAILABLE
   # of basis functions in Aux-J            ...   1762
   # of shells in Aux-J                     ...    590
   Maximum angular momentum in Aux-J        ...      4
Auxiliary J/K fitting basis                 ... NOT available
Auxiliary Correlation fitting basis         ... NOT available
Auxiliary 'external' fitting basis          ... NOT available

Checking pre-screening integrals            ... done (  0.0 sec) Dimension = 294
   => SHARK Basis and OBASIS are compatible. Storing Pre-screening
Shell pair information
Shell pair cut-off parameter TPreSel        ...   2.5e-12
Total number of shell pairs                 ...     43365
Shell pairs after pre-screening             ...     27905
Total number of primitive shell pairs       ...    191355
Primitive shell pairs kept                  ...     73095
          la=0 lb=0:   9365 shell pairs
          la=1 lb=0:  10943 shell pairs
          la=1 lb=1:   3114 shell pairs
          la=2 lb=0:   2622 shell pairs
          la=2 lb=1:   1681 shell pairs
          la=2 lb=2:    180 shell pairs

Checking whether 4 symmetric matrices of dimension 584 fit in memory
:Max Core in MB      =   2500.00
 MB in use           =     31.19
 MB left             =   2468.81
 MB needed           =      5.21
 Data fit in memory  = YES
Calculating RI/J V-Matrix + Cholesky decomp.... done (  0.5 sec)
Calculating Nuclear repulsion               ... done (  0.0 sec) ENN=   2552.529093026635 Eh

Diagonalization of the overlap matrix:
Smallest eigenvalue                        ... 1.929e-07
Time for diagonalization                   ...    0.091 sec
Threshold for overlap eigenvalues          ... 1.000e-07
Number of eigenvalues below threshold      ... 0

IMPORTANT:
Smallest eigenvalue of S below the DiffSThresh (1.000e-06) while
Thresh>1e-12 and/or TCut>1e-13! In order to avoid SCF convergence issues,
Thresh will be set to at least 1e-12 and TCut to at least 1e-13.
This can be turned off by adding %SCF DiffSThresh -1 END to the input.

Time for construction of square roots      ...    0.048 sec
Total time needed                          ...    0.145 sec

-------------------
DFT GRID GENERATION
-------------------

General Integration Accuracy     IntAcc      ... 4.388
Radial Grid Type                 RadialGrid  ... OptM3 with GC (2021)
Angular Grid (max. ang.)         AngularGrid ... 4 (Lebedev-302)
Angular grid pruning method      GridPruning ... 4 (adaptive)
Weight generation scheme         WeightScheme... mBecke (2022)
Basis function cutoff            BFCut       ... 1.0000e-11
Integration weight cutoff        WCut        ... 1.0000e-14
Partially contracted basis set               ... off
Rotationally invariant grid construction     ... off
Angular grids for H and He will be reduced by one unit
Diffuse basis detected: some atoms will have their outermost
                        angular grid increased by 1.

Total number of grid points                  ...   278738
Total number of batches                      ...     4383
Average number of points per batch           ...       63
Average number of grid points per atom       ...     4646

--------------------
COSX GRID GENERATION
--------------------

GRIDX 1
-------
General Integration Accuracy     IntAcc      ... 3.816
Radial Grid Type                 RadialGrid  ... OptM3 with GC (2021)
Angular Grid (max. ang.)         AngularGrid ... 1 (Lebedev-50)
Angular grid pruning method      GridPruning ... 4 (adaptive)
Weight generation scheme         WeightScheme... mBecke (2022)
Basis function cutoff            BFCut       ... 1.0000e-11
Integration weight cutoff        WCut        ... 1.0000e-14
Partially contracted basis set               ... on
Rotationally invariant grid construction     ... off
Angular grids for H and He will be reduced by one unit
Diffuse basis detected: some atoms will have their outermost
                        angular grid increased by 1.

Total number of grid points                  ...    35501
Total number of batches                      ...      315
Average number of points per batch           ...      112
Average number of grid points per atom       ...      592
UseSFitting                                  ... on

GRIDX 2
-------
General Integration Accuracy     IntAcc      ... 4.020
Radial Grid Type                 RadialGrid  ... OptM3 with GC (2021)
Angular Grid (max. ang.)         AngularGrid ... 2 (Lebedev-110)
Angular grid pruning method      GridPruning ... 4 (adaptive)
Weight generation scheme         WeightScheme... mBecke (2022)
Basis function cutoff            BFCut       ... 1.0000e-11
Integration weight cutoff        WCut        ... 1.0000e-14
Partially contracted basis set               ... on
Rotationally invariant grid construction     ... off
Angular grids for H and He will be reduced by one unit
Diffuse basis detected: some atoms will have their outermost
                        angular grid increased by 1.

Total number of grid points                  ...    80727
Total number of batches                      ...      663
Average number of points per batch           ...      121
Average number of grid points per atom       ...     1345
UseSFitting                                  ... on

GRIDX 3
-------
General Integration Accuracy     IntAcc      ... 4.338
Radial Grid Type                 RadialGrid  ... OptM3 with GC (2021)
Angular Grid (max. ang.)         AngularGrid ... 3 (Lebedev-194)
Angular grid pruning method      GridPruning ... 4 (adaptive)
Weight generation scheme         WeightScheme... mBecke (2022)
Basis function cutoff            BFCut       ... 1.0000e-11
Integration weight cutoff        WCut        ... 1.0000e-14
Partially contracted basis set               ... on
Rotationally invariant grid construction     ... off
Angular grids for H and He will be reduced by one unit
Diffuse basis detected: some atoms will have their outermost
                        angular grid increased by 1.

Total number of grid points                  ...   173945
Total number of batches                      ...     1390
Average number of points per batch           ...      125
Average number of grid points per atom       ...     2899
UseSFitting                                  ... on
Grids setup in  28.3 sec
Initializing property integral containers    ... done (  0.3 sec)

SHARK setup successfully completed in  30.5 seconds

Maximum memory used throughout the entire STARTUP-calculation: 90.9 MB


           ************************************************************
           *        Program running with 4 parallel MPI-processes     *
           *              working on a common directory               *
           ************************************************************
-------------------------------------------------------------------------------
                                 ORCA GUESS
                   Start orbitals & Density for SCF / CASSCF
-------------------------------------------------------------------------------

------------
SCF SETTINGS
------------
Hamiltonian:
 Density Functional     Method          .... DFT(GTOs)
 Exchange Functional    Exchange        .... B88
   X-Alpha parameter    XAlpha          ....  0.666667
   Becke's b parameter  XBeta           ....  0.004200
 Correlation Functional Correlation     .... LYP
 LDA part of GGA corr.  LDAOpt          .... VWN-5
 Gradients option       PostSCFGGA      .... off
 Hybrid DFT is turned on
   Fraction HF Exchange ScalHFX         ....  0.200000
   Scaling of DF-GGA-X  ScalDFX         ....  0.720000
   Scaling of DF-GGA-C  ScalDFC         ....  0.810000
   Scaling of DF-LDA-C  ScalLDAC        ....  1.000000
   Perturbative correction              ....  0.000000
   NL short-range parameter             ....  4.800000
 RI-approximation to the Coulomb term is turned on
   Number of AuxJ basis functions       .... 1762
   RIJ-COSX (HFX calculated with COS-X)).... on


General Settings:
 Integral files         IntName         .... td
 Hartree-Fock type      HFTyp           .... RHF
 Total Charge           Charge          ....    0
 Multiplicity           Mult            ....    1
 Number of Electrons    NEL             ....  214
 Basis Dimension        Dim             ....  584
 Nuclear Repulsion      ENuc            ....   2552.5290930266 Eh

Convergence Acceleration:
 AO-DIIS                CNVDIIS         .... on
   Start iteration      DIISMaxIt       ....    12
   Startup error        DIISStart       ....  0.200000
   # of expansion vecs  DIISMaxEq       ....     5
   Bias factor          DIISBfac        ....   1.050
   Max. coefficient     DIISMaxC        ....  10.000
 MO-DIIS                CNVKDIIS        .... off
 Trust-Rad. Augm. Hess. CNVTRAH         .... auto
   Auto Start mean grad. ratio tolernc. ....  1.125000
   Auto Start start iteration           ....    50
   Auto Start num. interpolation iter.  ....    10
   Max. Number of Micro iterations      ....    24
   Max. Number of Macro iterations      .... Maxiter - #DIIS iter
   Number of Davidson start vectors     ....     2
   Converg. threshold    (grad. norm)   ....   1.000e-05
   Grad. Scal. Fac. for Micro threshold ....   0.100
   Minimum threshold for Micro iter.    ....   1.000e-02
   NR start threshold (gradient norm)   ....   1.000e-04
   Initial trust radius                 ....   0.400
   Minimum AH scaling param. (alpha)    ....   1.000
   Maximum AH scaling param. (alpha)    .... 1000.000
   Quad. conv. algorithm                .... NR
   White noise on init. David. guess    .... on
   Maximum white noise                  ....   0.010
   Pseudo random numbers                .... off
   Inactive MOs                         .... canonical
   Orbital update algorithm             .... Taylor
   Preconditioner                       .... Diag
   Full preconditioner red. dimension   ....   250
 SOSCF                 CNVSOSCF           .... on
   Start iteration     SOSCFMaxIt         ....   150
   Startup grad/error  SOSCFStart         ....  0.003300
   Hessian update      SOSCFHessUp        .... L-BFGS
   Autom. constraints  SOSCFAutoConstrain .... off
 Level Shifting         CNVShift        .... on
   Level shift para.    LevelShift      ....    0.2500
   Turn off err/grad.   ShiftErr        ....    0.0010
 Zerner damping         CNVZerner       .... off
 Static damping         CNVDamp         .... on
   Fraction old density DampFac         ....    0.7000
   Max. Damping (<1)    DampMax         ....    0.9800
   Min. Damping (>=0)   DampMin         ....    0.0000
   Turn off err/grad.   DampErr         ....    0.1000

SCF Procedure:
 Maximum # iterations   MaxIter         ....   300
 SCF integral mode      SCFMode         .... Direct
   Integral package                     .... SHARK and LIBINT hybrid scheme
 Reset frequency        DirectResetFreq ....    20
 Integral Threshold     Thresh          ....  1.000e-12 Eh
 Primitive CutOff       TCut            ....  1.000e-13 Eh

Convergence Tolerance:
 Convergence Check Mode ConvCheckMode   .... Total+1el-Energy
 Convergence forced     ConvForced      .... 1
 Energy Change          TolE            ....  1.000e-08 Eh
 1-El. energy change                    ....  1.000e-05 Eh
 Orbital Gradient       TolG            ....  1.000e-05
 Orbital Rotation angle TolX            ....  1.000e-05
 DIIS Error             TolErr          ....  5.000e-07

------------------------------
INITIAL GUESS: MODEL POTENTIAL
------------------------------
Loading Hartree-Fock densities                     ... done
Calculating cut-offs                               ... done
Initializing the effective Hamiltonian             ... done
Setting up the integral package (SHARK)            ... done
Starting the Coulomb interaction                   ... done (   4.9 sec)
Making the grid                                    ... done (   2.7 sec)
Mapping shells                                     ... done
Starting the XC term evaluation                    ... done (   1.9 sec)
  promolecular density results
     # of electrons  =    213.996930739
     EX              =   -171.986338349
     EC              =     -7.206837047
     EX+EC           =   -179.193175396
Transforming the Hamiltonian                       ... done (   0.1 sec)
Diagonalizing the Hamiltonian                      ... done (   0.1 sec)
Back transforming the eigenvectors                 ... done (   0.0 sec)
Now organizing SCF variables                       ... done
                      ------------------
                      INITIAL GUESS DONE (  10.0 sec)
                      ------------------
             **** ENERGY FILE WAS UPDATED (td.en.tmp) ****
Finished Guess after  11.4 sec
Maximum memory used throughout the entire GUESS-calculation: 42.5 MB


           ************************************************************
           *        Program running with 4 parallel MPI-processes     *
           *              working on a common directory               *
           ************************************************************

-------------------------------------------------------------------------------------------
                                      ORCA LEAN-SCF
                              memory conserving SCF solver
-------------------------------------------------------------------------------------------

----------------------------------------D-I-I-S--------------------------------------------
Iteration    Energy (Eh)           Delta-E    RMSDP     MaxDP     DIISErr   Damp  Time(sec)
-------------------------------------------------------------------------------------------
               ***  Starting incremental Fock matrix formation  ***
    1    -1287.3864996145384794     0.00e+00  1.02e-01  5.31e+00  2.60e-01  0.700  76.4
    2    -1287.7405970379154496    -3.54e-01  7.16e-02  3.59e+00  9.65e-02  0.700  42.0
                               ***Turning on AO-DIIS***
    3    -1287.8797512350470242    -1.39e-01  3.01e-02  1.74e+00  3.45e-02  0.700  27.4
    4    -1287.9634535803611470    -8.37e-02  8.69e-02  7.87e+00  1.70e-02  0.000  31.9
    5    -1288.1464530695220674    -1.83e-01  2.55e-02  1.45e+00  5.02e-03  0.000  48.7
                              *** Initializing SOSCF ***
---------------------------------------S-O-S-C-F--------------------------------------
Iteration    Energy (Eh)           Delta-E    RMSDP     MaxDP     MaxGrad    Time(sec)
--------------------------------------------------------------------------------------
    6    -1288.1473899205611815    -9.37e-04  8.79e-03  5.28e-01  2.30e-03    41.5
               *** Restarting incremental Fock matrix formation ***
    7    -1288.1472534179515606     1.37e-04  2.33e-02  1.25e+00  2.89e-04    75.3
    8    -1288.1472326220837203     2.08e-05  3.45e-03  1.92e-01  7.40e-04    57.7
    9    -1288.1472686367665119    -3.60e-05  3.61e-03  1.56e-01  5.56e-05    47.9
   10    -1288.1472682637572689     3.73e-07  7.01e-04  4.57e-02  9.51e-05    60.5
   11    -1288.1472694661520109    -1.20e-06  1.09e-03  5.43e-02  3.01e-05    43.0
   12    -1288.1472694230378693     4.31e-08  1.42e-03  1.24e-01  4.50e-05    57.5
   13    -1288.1472694970302655    -7.40e-08  1.58e-03  1.36e-01  6.80e-06    43.5
   14    -1288.1472695048482819    -7.82e-09  3.28e-04  2.41e-02  9.41e-06    45.3
                 **** Energy Check signals convergence ****

               *****************************************************
               *                     SUCCESS                       *
               *           SCF CONVERGED AFTER  14 CYCLES          *
               *****************************************************

Recomputing exchange energy using gridx3       ... done (  129.482 sec)
Old exchange energy                            :    -34.982070179 Eh
New exchange energy                            :    -34.982024219 Eh
Exchange energy change after final integration :      0.000045960 Eh
Total energy after final integration           :  -1288.147223560 Eh
             **** ENERGY FILE WAS UPDATED (td.en.tmp) ****

----------------
TOTAL SCF ENERGY
----------------

Total Energy       :      -1288.14722355985418 Eh          -35052.26798 eV

Components:
Nuclear Repulsion  :       2552.52909302663511 Eh           69457.84779 eV
Electronic Energy  :      -3840.67636254697936 Eh         -104510.11702 eV
One Electron Energy:      -6822.31198796354056 Eh         -185644.54718 eV
Two Electron Energy:       2981.63562541656120 Eh           81134.43016 eV

Virial components:
Potential Energy   :      -2568.24007706560587 Eh          -69885.36540 eV
Kinetic Energy     :       1280.09285350575192 Eh           34833.09742 eV
Virial Ratio       :          2.00629202017029

DFT components:
N(Alpha)           :      107.000008194450 electrons
N(Beta)            :      107.000008194450 electrons
N(Total)           :      214.000016388899 electrons
E(X)               :     -138.916540104131 Eh       
E(C)               :       -8.486591956913 Eh       
E(XC)              :     -147.403132061044 Eh       

---------------
SCF CONVERGENCE
---------------

  Last Energy change         ...    7.8180e-09  Tolerance :   1.0000e-08
  Last MAX-Density change    ...    2.4097e-02  Tolerance :   1.0000e-07
  Last RMS-Density change    ...    3.2772e-04  Tolerance :   5.0000e-09
  Last DIIS Error            ...    2.3042e-03  Tolerance :   5.0000e-07
  Last Orbital Gradient      ...    9.4128e-06  Tolerance :   1.0000e-05
  Last Orbital Rotation      ...    1.8031e-05  Tolerance :   1.0000e-05


----------------
ORBITAL ENERGIES
----------------

  NO   OCC          E(Eh)            E(eV) 
   0   2.0000     -19.195705      -522.3417 
   1   2.0000     -19.160227      -521.3763 
   2   2.0000     -19.141756      -520.8737 
   3   2.0000     -19.138389      -520.7820 
   4   2.0000     -14.371810      -391.0768 
   5   2.0000     -10.318904      -280.7916 
   6   2.0000     -10.278440      -279.6906 
   7   2.0000     -10.258958      -279.1604 
   8   2.0000     -10.249606      -278.9059 
   9   2.0000     -10.240585      -278.6605 
  10   2.0000     -10.233118      -278.4573 
  11   2.0000     -10.231013      -278.4000 
  12   2.0000     -10.211324      -277.8643 
  13   2.0000     -10.211189      -277.8606 
  14   2.0000     -10.203715      -277.6572 
  15   2.0000     -10.202521      -277.6247 
  16   2.0000     -10.202300      -277.6187 
  17   2.0000     -10.201582      -277.5992 
  18   2.0000     -10.200346      -277.5655 
  19   2.0000     -10.191252      -277.3181 
  20   2.0000     -10.188139      -277.2334 
  21   2.0000     -10.187476      -277.2153 
  22   2.0000     -10.187194      -277.2076 
  23   2.0000     -10.185502      -277.1616 
  24   2.0000     -10.178975      -276.9840 
  25   2.0000     -10.178139      -276.9612 
  26   2.0000     -10.176519      -276.9172 
  27   2.0000     -10.176280      -276.9107 
  28   2.0000     -10.166525      -276.6452 
  29   2.0000      -1.111807       -30.2538 
  30   2.0000      -1.065138       -28.9839 
  31   2.0000      -1.030375       -28.0379 
  32   2.0000      -1.020364       -27.7655 
  33   2.0000      -0.968965       -26.3669 
  34   2.0000      -0.872648       -23.7460 
  35   2.0000      -0.850738       -23.1498 
  36   2.0000      -0.814388       -22.1606 
  37   2.0000      -0.792527       -21.5658 
  38   2.0000      -0.787405       -21.4264 
  39   2.0000      -0.778286       -21.1782 
  40   2.0000      -0.767704       -20.8903 
  41   2.0000      -0.759624       -20.6704 
  42   2.0000      -0.745162       -20.2769 
  43   2.0000      -0.733607       -19.9625 
  44   2.0000      -0.718062       -19.5395 
  45   2.0000      -0.678470       -18.4621 
  46   2.0000      -0.664840       -18.0912 
  47   2.0000      -0.651737       -17.7347 
  48   2.0000      -0.646472       -17.5914 
  49   2.0000      -0.621074       -16.9003 
  50   2.0000      -0.608502       -16.5582 
  51   2.0000      -0.605088       -16.4653 
  52   2.0000      -0.598135       -16.2761 
  53   2.0000      -0.584027       -15.8922 
  54   2.0000      -0.573293       -15.6001 
  55   2.0000      -0.554106       -15.0780 
  56   2.0000      -0.542670       -14.7668 
  57   2.0000      -0.535532       -14.5726 
  58   2.0000      -0.520592       -14.1660 
  59   2.0000      -0.502603       -13.6765 
  60   2.0000      -0.497112       -13.5271 
  61   2.0000      -0.495251       -13.4765 
  62   2.0000      -0.477072       -12.9818 
  63   2.0000      -0.465950       -12.6791 
  64   2.0000      -0.463374       -12.6090 
  65   2.0000      -0.461556       -12.5596 
  66   2.0000      -0.456264       -12.4156 
  67   2.0000      -0.455253       -12.3881 
  68   2.0000      -0.449721       -12.2375 
  69   2.0000      -0.448758       -12.2113 
  70   2.0000      -0.445058       -12.1106 
  71   2.0000      -0.438830       -11.9412 
  72   2.0000      -0.435555       -11.8521 
  73   2.0000      -0.433317       -11.7911 
  74   2.0000      -0.427822       -11.6416 
  75   2.0000      -0.419019       -11.4021 
  76   2.0000      -0.413975       -11.2648 
  77   2.0000      -0.412345       -11.2205 
  78   2.0000      -0.406558       -11.0630 
  79   2.0000      -0.404034       -10.9943 
  80   2.0000      -0.398277       -10.8377 
  81   2.0000      -0.395645       -10.7660 
  82   2.0000      -0.389031       -10.5861 
  83   2.0000      -0.385765       -10.4972 
  84   2.0000      -0.381110       -10.3705 
  85   2.0000      -0.375376       -10.2145 
  86   2.0000      -0.373325       -10.1587 
  87   2.0000      -0.369545       -10.0558 
  88   2.0000      -0.368711       -10.0331 
  89   2.0000      -0.360090        -9.7985 
  90   2.0000      -0.356107        -9.6902 
  91   2.0000      -0.354907        -9.6575 
  92   2.0000      -0.353020        -9.6061 
  93   2.0000      -0.348483        -9.4827 
  94   2.0000      -0.340740        -9.2720 
  95   2.0000      -0.340610        -9.2685 
  96   2.0000      -0.324752        -8.8370 
  97   2.0000      -0.321316        -8.7434 
  98   2.0000      -0.315008        -8.5718 
  99   2.0000      -0.305305        -8.3078 
 100   2.0000      -0.295172        -8.0320 
 101   2.0000      -0.280820        -7.6415 
 102   2.0000      -0.271595        -7.3905 
 103   2.0000      -0.266822        -7.2606 
 104   2.0000      -0.256086        -6.9685 
 105   2.0000      -0.229800        -6.2532 
 106   2.0000      -0.210092        -5.7169 
 107   0.0000      -0.074603        -2.0300 
 108   0.0000      -0.040284        -1.0962 
 109   0.0000      -0.021302        -0.5797 
 110   0.0000      -0.007193        -0.1957 
 111   0.0000      -0.002348        -0.0639 
 112   0.0000       0.002394         0.0652 
 113   0.0000       0.007712         0.2099 
 114   0.0000       0.010698         0.2911 
 115   0.0000       0.013222         0.3598 
 116   0.0000       0.015715         0.4276 
 117   0.0000       0.017614         0.4793 
*Only the first 10 virtual orbitals were printed.

                    ********************************
                    * MULLIKEN POPULATION ANALYSIS *
                    ********************************

-----------------------
MULLIKEN ATOMIC CHARGES
-----------------------
   0 C :   -0.660190
   1 C :   -0.386888
   2 C :   -0.290365
   3 C :   -0.302585
   4 C :   -0.650845
   5 C :   -0.019467
   6 O :   -0.297621
   7 C :    0.320840
   8 O :   -0.472933
   9 C :    0.458602
  10 C :   -0.664687
  11 C :   -0.336178
  12 C :    0.566414
  13 C :   -0.403525
  14 C :    0.111577
  15 C :   -0.066468
  16 O :   -0.492800
  17 C :    0.713191
  18 C :   -1.556207
  19 C :   -0.027808
  20 C :    0.358575
  21 C :    0.381258
  22 C :   -0.328693
  23 O :   -0.683591
  24 N :   -0.068155
  25 C :   -0.291748
  26 C :   -0.614716
  27 C :   -0.255724
  28 C :   -0.628576
  29 H :    0.202588
  30 H :    0.199280
  31 H :    0.196720
  32 H :    0.189823
  33 H :    0.191456
  34 H :    0.188935
  35 H :    0.187860
  36 H :    0.209442
  37 H :    0.190588
  38 H :    0.202445
  39 H :    0.210053
  40 H :    0.207949
  41 H :    0.215409
  42 H :    0.216747
  43 H :    0.205239
  44 H :    0.206302
  45 H :    0.210329
  46 H :    0.200431
  47 H :    0.165044
  48 H :    0.178944
  49 H :    0.562136
  50 H :    0.199253
  51 H :    0.191107
  52 H :    0.204096
  53 H :    0.222397
  54 H :    0.205461
  55 H :    0.189350
  56 H :    0.204288
  57 H :    0.205850
  58 H :    0.228400
  59 H :    0.201388
Sum of atomic charges:   -0.0000000

--------------------------------
MULLIKEN REDUCED ORBITAL CHARGES
--------------------------------
  0 C s       :     3.497582  s :     3.497582
      pz      :     1.099582  p :     3.128324
      px      :     1.021717
      py      :     1.007025
      dz2     :     0.006432  d :     0.034284
      dxz     :     0.012009
      dyz     :     0.001760
      dx2y2   :     0.006078
      dxy     :     0.008005

  1 C s       :     3.429331  s :     3.429331
      pz      :     1.085409  p :     2.917199
      px      :     0.959281
      py      :     0.872510
      dz2     :     0.006625  d :     0.040357
      dxz     :     0.013139
      dyz     :     0.003862
      dx2y2   :     0.007882
      dxy     :     0.008850

  2 C s       :     3.316552  s :     3.316552
      pz      :     0.974156  p :     2.933775
      px      :     0.991275
      py      :     0.968344
      dz2     :     0.009251  d :     0.040038
      dxz     :     0.009859
      dyz     :     0.004571
      dx2y2   :     0.004774
      dxy     :     0.011584

  3 C s       :     3.301153  s :     3.301153
      pz      :     0.990292  p :     2.961777
      px      :     1.027955
      py      :     0.943529
      dz2     :     0.008935  d :     0.039655
      dxz     :     0.009766
      dyz     :     0.004511
      dx2y2   :     0.005140
      dxy     :     0.011304

  4 C s       :     3.664943  s :     3.664943
      pz      :     1.003561  p :     2.946389
      px      :     0.992171
      py      :     0.950657
      dz2     :     0.007433  d :     0.039513
      dxz     :     0.009723
      dyz     :     0.006607
      dx2y2   :     0.004828
      dxy     :     0.010921

  5 C s       :     3.234621  s :     3.234621
      pz      :     0.969822  p :     2.723219
      px      :     0.758520
      py      :     0.994877
      dz2     :     0.012728  d :     0.061627
      dxz     :     0.013149
      dyz     :     0.006910
      dx2y2   :     0.014477
      dxy     :     0.014363

  6 O s       :     3.780379  s :     3.780379
      pz      :     1.594722  p :     4.489321
      px      :     1.251166
      py      :     1.643433
      dz2     :     0.004939  d :     0.027922
      dxz     :     0.009163
      dyz     :     0.004449
      dx2y2   :     0.004237
      dxy     :     0.005134

  7 C s       :     3.199556  s :     3.199556
      pz      :     0.753030  p :     2.350832
      px      :     0.831479
      py      :     0.766323
      dz2     :     0.030909  d :     0.128771
      dxz     :     0.046298
      dyz     :     0.024964
      dx2y2   :     0.012475
      dxy     :     0.014125

  8 O s       :     3.963886  s :     3.963886
      pz      :     1.306950  p :     4.482409
      px      :     1.724715
      py      :     1.450744
      dz2     :     0.009156  d :     0.026638
      dxz     :     0.006410
      dyz     :     0.008353
      dx2y2   :     0.001525
      dxy     :     0.001194

  9 C s       :     2.765535  s :     2.765535
      pz      :     0.803271  p :     2.737719
      px      :     0.978844
      py      :     0.955604
      dz2     :     0.009576  d :     0.038145
      dxz     :     0.010798
      dyz     :     0.006945
      dx2y2   :     0.004563
      dxy     :     0.006262

 10 C s       :     3.606504  s :     3.606504
      pz      :     1.012540  p :     3.022190
      px      :     1.077309
      py      :     0.932340
      dz2     :     0.009688  d :     0.035994
      dxz     :     0.008831
      dyz     :     0.005327
      dx2y2   :     0.006213
      dxy     :     0.005935

 11 C s       :     3.178608  s :     3.178608
      pz      :     1.087863  p :     3.121369
      px      :     1.129728
      py      :     0.903778
      dz2     :     0.008129  d :     0.036201
      dxz     :     0.012101
      dyz     :     0.005844
      dx2y2   :     0.005747
      dxy     :     0.004380

 12 C s       :     2.044471  s :     2.044471
      pz      :     1.126393  p :     3.350339
      px      :     1.025637
      py      :     1.198309
      dz2     :     0.009564  d :     0.038776
      dxz     :     0.010580
      dyz     :     0.007147
      dx2y2   :     0.005038
      dxy     :     0.006446

 13 C s       :     3.600470  s :     3.600470
      pz      :     1.045557  p :     2.767119
      px      :     0.782155
      py      :     0.939406
      dz2     :     0.009671  d :     0.035936
      dxz     :     0.008629
      dyz     :     0.005401
      dx2y2   :     0.006327
      dxy     :     0.005908

 14 C s       :     3.046091  s :     3.046091
      pz      :     0.839480  p :     2.806095
      px      :     1.050476
      py      :     0.916138
      dz2     :     0.008194  d :     0.036237
      dxz     :     0.011799
      dyz     :     0.005879
      dx2y2   :     0.005955
      dxy     :     0.004410

 15 C s       :     2.657344  s :     2.657344
      pz      :     0.872744  p :     3.321410
      px      :     1.336952
      py      :     1.111714
      dz2     :     0.011331  d :     0.087714
      dxz     :     0.014980
      dyz     :     0.014229
      dx2y2   :     0.020907
      dxy     :     0.026266

 16 O s       :     3.939994  s :     3.939994
      pz      :     1.414914  p :     4.527859
      px      :     1.779032
      py      :     1.333914
      dz2     :     0.005314  d :     0.024946
      dxz     :     0.002608
      dyz     :     0.006043
      dx2y2   :     0.005799
      dxy     :     0.005183

 17 C s       :     2.675655  s :     2.675655
      pz      :     1.240085  p :     2.575607
      px      :     0.403437
      py      :     0.932085
      dz2     :     0.004327  d :     0.035547
      dxz     :     0.005097
      dyz     :     0.005114
      dx2y2   :     0.009764
      dxy     :     0.011245

 18 C s       :     3.905191  s :     3.905191
      pz      :     0.963821  p :     3.612423
      px      :     1.614563
      py      :     1.034039
      dz2     :     0.004423  d :     0.038593
      dxz     :     0.007166
      dyz     :     0.005075
      dx2y2   :     0.008839
      dxy     :     0.013091

 19 C s       :     2.641473  s :     2.641473
      pz      :     1.107356  p :     3.352438
      px      :     1.293523
      py      :     0.951559
      dz2     :     0.002906  d :     0.033897
      dxz     :     0.006126
      dyz     :     0.004334
      dx2y2   :     0.010070
      dxy     :     0.010461

 20 C s       :     3.393455  s :     3.393455
      pz      :     0.866171  p :     2.186933
      px      :     0.718454
      py      :     0.602307
      dz2     :     0.006741  d :     0.061037
      dxz     :     0.015611
      dyz     :     0.006661
      dx2y2   :     0.016185
      dxy     :     0.015840

 21 C s       :     2.043251  s :     2.043251
      pz      :     1.210624  p :     3.544110
      px      :     1.351525
      py      :     0.981961
      dz2     :     0.003570  d :     0.031381
      dxz     :     0.004905
      dyz     :     0.004413
      dx2y2   :     0.008183
      dxy     :     0.010310

 22 C s       :     3.475067  s :     3.475067
      pz      :     0.838378  p :     2.777804
      px      :     1.127341
      py      :     0.812085
      dz2     :     0.010108  d :     0.075822
      dxz     :     0.011570
      dyz     :     0.014179
      dx2y2   :     0.020188
      dxy     :     0.019778

 23 O s       :     3.985679  s :     3.985679
      pz      :     1.693655  p :     4.669289
      px      :     1.528625
      py      :     1.447009
      dz2     :     0.005169  d :     0.028622
      dxz     :     0.001298
      dyz     :     0.006089
      dx2y2   :     0.012715
      dxy     :     0.003351

 24 N s       :     3.243075  s :     3.243075
      pz      :     1.548015  p :     3.787716
      px      :     1.061183
      py      :     1.178518
      dz2     :     0.004096  d :     0.037364
      dxz     :     0.006594
      dyz     :     0.004932
      dx2y2   :     0.010545
      dxy     :     0.011197

 25 C s       :     3.405817  s :     3.405817
      pz      :     0.892789  p :     2.831197
      px      :     1.073380
      py      :     0.865028
      dz2     :     0.013455  d :     0.054733
      dxz     :     0.007981
      dyz     :     0.013363
      dx2y2   :     0.010443
      dxy     :     0.009492

 26 C s       :     3.484990  s :     3.484990
      pz      :     0.881547  p :     3.096364
      px      :     1.112833
      py      :     1.101985
      dz2     :     0.007990  d :     0.033361
      dxz     :     0.006876
      dyz     :     0.005552
      dx2y2   :     0.006734
      dxy     :     0.006210

 27 C s       :     3.383448  s :     3.383448
      pz      :     1.008947  p :     2.817626
      px      :     0.892959
      py      :     0.915719
      dz2     :     0.011506  d :     0.054650
      dxz     :     0.007442
      dyz     :     0.012277
      dx2y2   :     0.006162
      dxy     :     0.017265

 28 C s       :     3.499029  s :     3.499029
      pz      :     1.009947  p :     3.096205
      px      :     1.099761
      py      :     0.986497
      dz2     :     0.007375  d :     0.033342
      dxz     :     0.004862
      dyz     :     0.008067
      dx2y2   :     0.002223
      dxy     :     0.010815

 29 H s       :     0.797412  s :     0.797412

 30 H s       :     0.800720  s :     0.800720

 31 H s       :     0.803280  s :     0.803280

 32 H s       :     0.810177  s :     0.810177

 33 H s       :     0.808544  s :     0.808544

 34 H s       :     0.811065  s :     0.811065

 35 H s       :     0.812140  s :     0.812140

 36 H s       :     0.790558  s :     0.790558

 37 H s       :     0.809412  s :     0.809412

 38 H s       :     0.797555  s :     0.797555

 39 H s       :     0.789947  s :     0.789947

 40 H s       :     0.792051  s :     0.792051

 41 H s       :     0.784591  s :     0.784591

 42 H s       :     0.783253  s :     0.783253

 43 H s       :     0.794761  s :     0.794761

 44 H s       :     0.793698  s :     0.793698

 45 H s       :     0.789671  s :     0.789671

 46 H s       :     0.799569  s :     0.799569

 47 H s       :     0.834956  s :     0.834956

 48 H s       :     0.821056  s :     0.821056

 49 H s       :     0.437864  s :     0.437864

 50 H s       :     0.800747  s :     0.800747

 51 H s       :     0.808893  s :     0.808893

 52 H s       :     0.795904  s :     0.795904

 53 H s       :     0.777603  s :     0.777603

 54 H s       :     0.794539  s :     0.794539

 55 H s       :     0.810650  s :     0.810650

 56 H s       :     0.795712  s :     0.795712

 57 H s       :     0.794150  s :     0.794150

 58 H s       :     0.771600  s :     0.771600

 59 H s       :     0.798612  s :     0.798612



                     *******************************
                     * LOEWDIN POPULATION ANALYSIS *
                     *******************************

----------------------
LOEWDIN ATOMIC CHARGES
----------------------
   0 C :   -0.518619
   1 C :   -0.397121
   2 C :   -0.398090
   3 C :   -0.391982
   4 C :   -0.367410
   5 C :   -0.144413
   6 O :   -0.367316
   7 C :    0.202194
   8 O :   -0.335610
   9 C :   -0.079380
  10 C :   -0.139749
  11 C :   -0.175837
  12 C :   -0.082531
  13 C :   -0.142855
  14 C :   -0.144934
  15 C :    0.143550
  16 O :   -0.393199
  17 C :   -0.158898
  18 C :   -0.138609
  19 C :   -0.247677
  20 C :    0.006952
  21 C :   -0.242411
  22 C :    0.119856
  23 O :   -0.440986
  24 N :   -0.339106
  25 C :   -0.264308
  26 C :   -0.495711
  27 C :   -0.263594
  28 C :   -0.494299
  29 H :    0.189550
  30 H :    0.188337
  31 H :    0.183647
  32 H :    0.192006
  33 H :    0.186908
  34 H :    0.199711
  35 H :    0.194640
  36 H :    0.210924
  37 H :    0.197865
  38 H :    0.204574
  39 H :    0.205915
  40 H :    0.214346
  41 H :    0.224707
  42 H :    0.240282
  43 H :    0.231964
  44 H :    0.234986
  45 H :    0.237566
  46 H :    0.232705
  47 H :    0.221359
  48 H :    0.238510
  49 H :    0.438158
  50 H :    0.210107
  51 H :    0.207395
  52 H :    0.196662
  53 H :    0.205481
  54 H :    0.190496
  55 H :    0.206824
  56 H :    0.212293
  57 H :    0.191038
  58 H :    0.207768
  59 H :    0.195370

-------------------------------
LOEWDIN REDUCED ORBITAL CHARGES
-------------------------------
  0 C s       :     3.013600  s :     3.013600
      pz      :     1.162735  p :     3.437716
      px      :     1.140666
      py      :     1.134315
      dz2     :     0.012504  d :     0.067303
      dxz     :     0.022150
      dyz     :     0.003367
      dx2y2   :     0.011895
      dxy     :     0.017387

  1 C s       :     2.968219  s :     2.968219
      pz      :     1.138805  p :     3.344296
      px      :     1.112436
      py      :     1.093055
      dz2     :     0.013909  d :     0.084606
      dxz     :     0.024448
      dyz     :     0.007790
      dx2y2   :     0.017131
      dxy     :     0.021327

  2 C s       :     2.961777  s :     2.961777
      pz      :     1.115894  p :     3.352176
      px      :     1.117441
      py      :     1.118841
      dz2     :     0.018752  d :     0.084137
      dxz     :     0.020826
      dyz     :     0.010055
      dx2y2   :     0.010339
      dxy     :     0.024164

  3 C s       :     2.955136  s :     2.955136
      pz      :     1.117719  p :     3.353275
      px      :     1.124978
      py      :     1.110578
[...]
  0-1A  ->  4-1A    4.360349   35168.6   284.3   0.614137605   5.74892  -2.38210  -0.24857  -0.11283
  0-1A  ->  5-1A    4.530418   36540.3   273.7   0.032611668   0.29382  -0.49090  -0.04865  -0.22464
  0-1A  ->  6-1A    4.578422   36927.5   270.8   0.003963194   0.03533  -0.04227   0.14767  -0.10834
  0-1A  ->  7-1A    4.609078   37174.7   269.0   0.001412732   0.01251  -0.03085  -0.10709  -0.00949
  0-1A  ->  8-1A    4.656235   37555.1   266.3   0.013705212   0.12014  -0.11499   0.16942   0.27967
  0-1A  ->  9-1A    4.879986   39359.7   254.1   0.058620566   0.49031   0.47473  -0.49101  -0.15444
  0-1A  -> 10-1A    4.932876   39786.3   251.3   0.096173245   0.79579  -0.52560   0.55351   0.46169
  0-1A  -> 11-1A    5.082533   40993.4   243.9   0.153118801   1.22967  -0.91937   0.55913   0.26797
  0-1A  -> 12-1A    5.148046   41521.8   240.8   0.008444236   0.06695   0.21144  -0.00465   0.14908
  0-1A  -> 13-1A    5.173691   41728.6   239.6   0.006555654   0.05172  -0.16195  -0.13806  -0.08021
  0-1A  -> 14-1A    5.228704   42172.3   237.1   0.007683336   0.05998   0.21430  -0.08492  -0.08272
  0-1A  -> 15-1A    5.357432   43210.6   231.4   0.021341115   0.16259   0.10473  -0.30468   0.24248
  0-1A  -> 16-1A    5.401012   43562.1   229.6   0.003485907   0.02634   0.16117  -0.00818   0.01737
  0-1A  -> 17-1A    5.434058   43828.6   228.2   0.019068859   0.14323   0.05960  -0.27736  -0.25051
  0-1A  -> 18-1A    5.480848   44206.0   226.2   0.009474929   0.07056  -0.04450   0.21539   0.14896
  0-1A  -> 19-1A    5.536146   44652.0   224.0   0.022749547   0.16773   0.29398   0.28446   0.01961
  0-1A  -> 20-1A    5.567874   44907.9   222.7   0.004787358   0.03510  -0.06987  -0.05094  -0.16619
  0-1A  -> 21-1A    5.713793   46084.9   217.0   0.040801914   0.29147  -0.51772   0.12885  -0.08267
  0-1A  -> 22-1A    5.749701   46374.5   215.6   0.108999064   0.77378  -0.78733   0.32036   0.22640

----------------------------------------------------------------------------------------------------
                     ABSORPTION SPECTRUM VIA TRANSITION VELOCITY DIPOLE MOMENTS    
----------------------------------------------------------------------------------------------------
     Transition      Energy     Energy  Wavelength fosc(P2)      P2        PX        PY        PZ   
                      (eV)      (cm-1)    (nm)                 (au**2)    (au)      (au)      (au)  
----------------------------------------------------------------------------------------------------
  0-1A  ->  1-1A    3.421965   27600.0   362.3   0.093681829   0.01767  -0.12144   0.05356   0.00742
  0-1A  ->  2-1A    3.686392   29732.8   336.3   0.005151891   0.00105   0.02305   0.02113   0.00831
  0-1A  ->  3-1A    3.882040   31310.8   319.4   0.010676627   0.00228   0.04773   0.00251   0.00072
  0-1A  ->  4-1A    4.360349   35168.6   284.3   0.213454882   0.05131   0.22144  -0.04761  -0.00205
  0-1A  ->  5-1A    4.530418   36540.3   273.7   0.006751341   0.00169   0.03768  -0.00670  -0.01487
  0-1A  ->  6-1A    4.578422   36927.5   270.8   0.004635403   0.00117  -0.02424   0.00452  -0.02370
  0-1A  ->  7-1A    4.609078   37174.7   269.0   0.001094089   0.00028  -0.00578  -0.01445   0.00599
  0-1A  ->  8-1A    4.656235   37555.1   266.3   0.003951055   0.00101   0.02077   0.00715   0.02305
  0-1A  ->  9-1A    4.879986   39359.7   254.1   0.025348620   0.00682  -0.07057   0.04172  -0.00989
  0-1A  -> 10-1A    4.932876   39786.3   251.3   0.045121800   0.01227   0.10832   0.02077  -0.01021
  0-1A  -> 11-1A    5.082533   40993.4   243.9   0.047471630   0.01330   0.11501   0.00839  -0.00177
  0-1A  -> 12-1A    5.148046   41521.8   240.8   0.009693497   0.00275   0.04136  -0.02223  -0.02337
  0-1A  -> 13-1A    5.173691   41728.6   239.6   0.002825766   0.00081   0.02341  -0.01510  -0.00546
  0-1A  -> 14-1A    5.228704   42172.3   237.1   0.003931675   0.00113  -0.03010   0.01330   0.00709
  0-1A  -> 15-1A    5.357432   43210.6   231.4   0.011497314   0.00340  -0.02325   0.03046  -0.04390
  0-1A  -> 16-1A    5.401012   43562.1   229.6   0.001452443   0.00043  -0.01937   0.00238  -0.00718
  0-1A  -> 17-1A    5.434058   43828.6   228.2   0.007063599   0.00212  -0.00221   0.02895   0.03568
  0-1A  -> 18-1A    5.480848   44206.0   226.2   0.002353303   0.00071  -0.00204  -0.02082  -0.01654
  0-1A  -> 19-1A    5.536146   44652.0   224.0   0.004241722   0.00129  -0.02450   0.01791   0.01932
  0-1A  -> 20-1A    5.567874   44907.9   222.7   0.002580164   0.00079   0.01070   0.00690   0.02510
  0-1A  -> 21-1A    5.713793   46084.9   217.0   0.020314101   0.00640   0.06824  -0.03554  -0.02186
  0-1A  -> 22-1A    5.749701   46374.5   215.6   0.073471782   0.02329   0.14978  -0.02920   0.00048

------------------------------------------------------------------------------------------
                     CD SPECTRUM VIA TRANSITION ELECTRIC DIPOLE MOMENTS    
------------------------------------------------------------------------------------------
     Transition      Energy     Energy  Wavelength    R        MX        MY        MZ   
                      (eV)      (cm-1)    (nm)   (1e40*cgs)   (au)      (au)      (au)  
------------------------------------------------------------------------------------------
  0-1A  ->  1-1A    3.421965   27600.0   362.3   -2.30310   0.01083  -0.14404  -0.05956
  0-1A  ->  2-1A    3.686392   29732.8   336.3    4.30445  -0.00717  -0.09524   0.11372
  0-1A  ->  3-1A    3.882040   31310.8   319.4   -0.23081  -0.06398  -0.15984  -0.14100
  0-1A  ->  4-1A    4.360349   35168.6   284.3   -8.87476  -0.04226   0.27557   0.11833
  0-1A  ->  5-1A    4.530418   36540.3   273.7  -11.62734   0.00937   0.21767  -0.17740
  0-1A  ->  6-1A    4.578422   36927.5   270.8   23.06186   0.02070  -0.15289   0.23503
  0-1A  ->  7-1A    4.609078   37174.7   269.0   -4.97553   0.03829  -0.08675  -0.25750
  0-1A  ->  8-1A    4.656235   37555.1   266.3   -4.47549  -0.00535  -0.04059   0.05633
  0-1A  ->  9-1A    4.879986   39359.7   254.1  -37.04892   0.03943  -0.09536  -0.08445
  0-1A  -> 10-1A    4.932876   39786.3   251.3   76.96824  -0.05249  -0.06597  -0.33428
  0-1A  -> 11-1A    5.082533   40993.4   243.9  -27.95501  -0.01699   0.20103  -0.25648
  0-1A  -> 12-1A    5.148046   41521.8   240.8  -14.81237   0.01785  -0.15570   0.18058
  0-1A  -> 13-1A    5.173691   41728.6   239.6    2.14942   0.00151  -0.03922   0.12130
  0-1A  -> 14-1A    5.228704   42172.3   237.1   -0.61832   0.02156   0.14504  -0.10888
  0-1A  -> 15-1A    5.357432   43210.6   231.4  -22.63496   0.05833  -0.34196  -0.25687
  0-1A  -> 16-1A    5.401012   43562.1   229.6    2.92569  -0.04699  -0.05581   0.05242
  0-1A  -> 17-1A    5.434058   43828.6   228.2    0.03185   0.08073   0.26286  -0.27156
  0-1A  -> 18-1A    5.480848   44206.0   226.2   -3.64761   0.09059  -0.04524   0.14442
  0-1A  -> 19-1A    5.536146   44652.0   224.0   -7.28493  -0.00881   0.06234   0.01569
  0-1A  -> 20-1A    5.567874   44907.9   222.7   -0.68936   0.01065   0.15697  -0.06139
  0-1A  -> 21-1A    5.713793   46084.9   217.0    0.73504  -0.05277  -0.11040   0.17724
  0-1A  -> 22-1A    5.749701   46374.5   215.6  -11.14977  -0.01364   0.04587  -0.00787

------------------------------------------------------------------------------------------
                     CD SPECTRUM VIA TRANSITION VELOCITY DIPOLE MOMENTS    
------------------------------------------------------------------------------------------
     Transition      Energy     Energy  Wavelength    R        MX        MY        MZ   
                      (eV)      (cm-1)    (nm)   (1e40*cgs)   (au)      (au)      (au)  
------------------------------------------------------------------------------------------
  0-1A  ->  1-1A    3.421965   27600.0   362.3  -35.50856   0.01083  -0.14404  -0.05956
  0-1A  ->  2-1A    3.686392   29732.8   336.3   -4.29186  -0.00717  -0.09524   0.11372
  0-1A  ->  3-1A    3.882040   31310.8   319.4  -11.74990  -0.06398  -0.15984  -0.14100
  0-1A  ->  4-1A    4.360349   35168.6   284.3  -66.84453  -0.04226   0.27557   0.11833
  0-1A  ->  5-1A    4.530418   36540.3   273.7    4.33965   0.00937   0.21767  -0.17740
  0-1A  ->  6-1A    4.578422   36927.5   270.8  -18.95084   0.02070  -0.15289   0.23503
  0-1A  ->  7-1A    4.609078   37174.7   269.0   -1.42076   0.03829  -0.08675  -0.25750
  0-1A  ->  8-1A    4.656235   37555.1   266.3    2.47220  -0.00535  -0.04059   0.05633
  0-1A  ->  9-1A    4.879986   39359.7   254.1  -15.57784   0.03943  -0.09536  -0.08445
  0-1A  -> 10-1A    4.932876   39786.3   251.3   -9.47815  -0.05249  -0.06597  -0.33428
  0-1A  -> 11-1A    5.082533   40993.4   243.9    0.46915  -0.01699   0.20103  -0.25648
  0-1A  -> 12-1A    5.148046   41521.8   240.8   -0.04937   0.01785  -0.15570   0.18058
  0-1A  -> 13-1A    5.173691   41728.6   239.6   -0.08695   0.00151  -0.03922   0.12130
  0-1A  -> 14-1A    5.228704   42172.3   237.1    1.24728   0.02156   0.14504  -0.10888
  0-1A  -> 15-1A    5.357432   43210.6   231.4   -1.19198   0.05833  -0.34196  -0.25687
  0-1A  -> 16-1A    5.401012   43562.1   229.6    0.95288  -0.04699  -0.05581   0.05242
  0-1A  -> 17-1A    5.434058   43828.6   228.2   -5.32710   0.08073   0.26286  -0.27156
  0-1A  -> 18-1A    5.480848   44206.0   226.2   -3.81823   0.09059  -0.04524   0.14442
  0-1A  -> 19-1A    5.536146   44652.0   224.0    3.79033  -0.00881   0.06234   0.01569
  0-1A  -> 20-1A    5.567874   44907.9   222.7   -0.79262   0.01065   0.15697  -0.06139
  0-1A  -> 21-1A    5.713793   46084.9   217.0   -7.97525  -0.05277  -0.11040   0.17724
  0-1A  -> 22-1A    5.749701   46374.5   215.6   -7.55494  -0.01364   0.04587  -0.00787

Total run time:     1616.528 sec

           *** ORCA-CIS/TD-DFT FINISHED WITHOUT ERROR ***
-----------------------
CIS/TD-DFT TOTAL ENERGY
-----------------------

    E(SCF)  =  -1288.147223560 Eh
    DE(CIS) =      0.125754898 Eh (Root  1)
    ----------------------------- ---------
    E(tot)  =  -1288.021468661 Eh


Maximum memory used throughout the entire CIS-calculation: 1416.2 MB
=> NOW LEAVING ORCA_CIS

-------------------------   --------------------
FINAL SINGLE POINT ENERGY     -1288.021468661402
-------------------------   --------------------



           ************************************************************
           *        Program running with 4 parallel MPI-processes     *
           *              working on a common directory               *
           ************************************************************

------------------------------------------------------------------------------
                              ORCA PROPERTY CALCULATIONS
------------------------------------------------------------------------------

GBWName                                 ... td.gbw
Number of atoms                         ...     60
Number of basis functions               ...    584
Max core memory                         ...   2500 MB

Electric properties:
Dipole moment                           ... YES
Quadrupole moment                       ...  NO
Static polarizability (Dipole/Dipole)   ...  NO
Static polarizability (Dipole/Quad.)    ...  NO
Static polarizability (Quad./Quad.)     ...  NO
Static polarizability (Velocity)        ...  NO
Static hyperpolarizability              ...  NO

Atomic electric properties:
Dipole moment                           ...  NO
Quadrupole moment                       ...  NO
Static polarizability                   ...  NO

Choice of electric origin               ... Center of mass
Position of electric origin             ...    -0.361132     0.116156     0.203045

General magnetic properties:
Magnetizability                         ...  NO

EPR properties:
g-Tensor (aka g-matrix)                 ...  NO
Zero-Field splitting spin-orbit         ...  NO
Zero-field splitting spin-spin          ...  NO
Hyperfine couplings                     ...  NO (   0 nuclei)
Quadrupole couplings                    ...  NO (   0 nuclei)
Contact density                         ...  NO (   0 nuclei)

NMR properties:
Chemical shifts                         ...  NO (   0 nuclei)
Spin-rotation constants                 ...  NO (   0 nuclei)
Spin-spin couplings                     ...  NO (   0 nuclei,    0 pairs)

Choice of magnetic origin               ... GIAO
Position of magnetic origin             ...     0.000000     0.000000     0.000000

Properties with geometric perturbations:
SCF Hessian                             ...  NO
IR spectrum                             ...  NO
VCD spectrum                            ...  NO
X-ray spectroscopy properties:
SCF XES/XAS/RIXS spectra                ...  NO

SCF SOC stabilization energy            ...  NO
Diagonal Born-Oppenheimer correction    ...  NO

-------------
DIPOLE MOMENT
-------------

Method             : SCF
Type of density    : Electron Density
Multiplicity       :   1
Irrep              :   0
Energy             : -1288.1472235598541829 Eh
Basis              : AO
                                X                 Y                 Z
Electronic contribution:    -13.284917840       1.979143349       5.996442620
Nuclear contribution   :     12.006944434      -3.285959152      -6.120121556
                        -----------------------------------------
Total Dipole Moment    :     -1.277973406      -1.306815803      -0.123678936
                        -----------------------------------------
Magnitude (a.u.)       :      1.832015297
Magnitude (Debye)      :      4.656612817



--------------------
Rotational spectrum 
--------------------
 
Rotational constants in cm-1:             0.013524             0.001512             0.001409 
Rotational constants in MHz :           405.447915            45.343447            42.239300 

Dipole components along the rotational axes: 
x,y,z [a.u.] :    -1.129670    -1.327820     0.563046 
x,y,z [Debye]:    -2.871393    -3.375049     1.431149 

 

Dipole moment calculation done in   0.1 sec 

Maximum memory used throughout the entire PROP-calculation: 44.9 MB

--------------------------------
SUGGESTED CITATIONS FOR THIS RUN
--------------------------------

Below you find a list of papers that are relevant to this ORCA run
We neither can nor want to force you to cite these papers, but we appreciate if you do
You receive ORCA, which is the product of decades of hard work by many enthusiastic individuals, for free
The only thing we kindly ask in return is that you cite our papers,
We deeply appreciate it, if you show your appreciation for ORCA by not just citing the generic ORCA reference.

Please note that relegating all ORCA citations to the supporting information does *not* help us.
SI sections are not indexed - citations you put there will not count into any citation statistics
But we need these citations in order to attract the funding resources that allow us to do what we are doing

Therefore, if you are a happy ORCA user, please consider citing a few of the papers listed below in the main body of your paper

In addition to the list printed below, the program has created the file td.bibtex that contains the list in bibtex format
You can import this file easily into all common literature databanks and citation aid programs

It goes without saying that in many instances, there are alternative algorithms to achieve similar
results as the ones you have gotten from ORCA. It is, of course, also the case that in some instances
ORCA just re-implements algorithms worked out by others. We are fully aware of that and we are also
fully appreciative of our colleagues work. Hence this citation list should not be read as indicating
that the listed papers, which are focused on our own work, are the only ones worth citing. It simply
meant to make it easier for users to cite ORCA specific papers. It is not a substitute for doing your
own literature research and citing the relevant literature in a scientifically appropriate manner.

List of essential papers. We consider these as the minimum necessary citations

  1. Neese, F.
     Software update: the ORCA program system, version 6.0
     WIRES Comput. Molec. Sci. 2025 15(1), e70019
     doi.org/10.1002/wcms.70019

List of papers to cite with high priority. The work reported in these papers was absolutely
necessary for this run to complete.
Our perspective: the developers of density functionals and basis sets usually get cited in chemistry papers
Good! But without the algorithms to do something with them, the functionals or basis sets would not do anything.
Hence, in our opinion, the algorithm design and method developments papers are equally worthy of getting cited

  1. Neese, F.; Olbrich, G.
     Efficient use of the resolution of the identity approximation in time-dependent density functional calculations with hybrid density functionals
     Chem. Phys. Lett. 2002 362 , 170-178
     doi.org/10.1016/s0009-2614(02)01053-9
  2. Neese, F.
     An improvement of the resolution of the identity approximation for the formation of the Coulomb matrix
     J. Comp. Chem. 2003 24(14), 1740-1747
     doi.org/10.1002/jcc.10318
  3. Neese, F.; Wennmohs, F.; Hansen, A.; Becker, U.
     Efficient, approximate and parallel Hartree-Fock and hybrid DFT calculations. A 'chain-of-spheres' algorithm for the Hartree-Fock exchange
     Chem. Phys. 2009 356(1-3), 98-109
     doi.org/10.1016/j.chemphys.2008.10.036
  4. Helmich-Paris, B.; de Souza, B.; Neese, F.; Izsák, R.
     An improved chain of spheres for exchange algorithm
     J. Chem. Phys. 2021 155(10), 104109
     doi.org/10.1063/5.0058766
  5. Neese, F.
     The SHARK Integral Generation and Digestion System
     J. Comp. Chem. 2022 44(3), 381
     doi.org/10.1002/jcc.26942

List of suggested additional citations. These are papers that are important in the 'surrounding' of 
of this run, or papers that preceded the highly important papers. If you like your results we are grateful for a citation.

  1. Izsak, R.; Neese, F.
     An overlap fitted chain of spheres exchange method
     J. Chem. Phys. 2011 135 , 144105
     doi.org/10.1063/1.3646921
  2. Izsak, R.; Hansen, A.; Neese, F.
     The resolution of identity and chain of spheres approximations for the LPNO-CCSD singles Fock term
     Molec. Phys. 2012 110 , 2413-2417
     doi.org/10.1080/00268976.2012.687466
  3. Neese, F.
     The ORCA program system
     WIRES Comput. Molec. Sci. 2012 2(1), 73-78
     doi.org/10.1002/wcms.81
  4. Izsak, R.; Neese, F.; Klopper, W.
     Robust fitting techniques in the chain of spheres approximation to the Fock exchange: The role of the complementary space
     J. Chem. Phys. 2013 139 , 
     doi.org/10.1063/1.4819264
  5. Neese, F.
     Software update: the ORCA program system, version 4.0
     WIRES Comput. Molec. Sci. 2018 8(1), 1-6
     doi.org/10.1002/wcms.1327
  6. Neese, F.; Wennmohs, F.; Becker, U.; Riplinger, C.
     The ORCA quantum chemistry program package
     J. Chem. Phys. 2020 152(22), 224108
     doi.org/10.1063/5.0004608
  7. Neese, F.
     Software update: The ORCA program system—Version 5.0
     WIRES Comput. Molec. Sci. 2022 12(1), e1606
     doi.org/10.1002/wcms.1606

List of optional additional citations

  1. Neese, F.
     Approximate second-order SCF convergence for spin unrestricted wavefunctions
     Chem. Phys. Lett. 2000 325(1-3), 93-98
     doi.org/10.1016/s0009-2614(00)00662-x

Timings for individual modules:

Sum of individual times          ...     2542.397 sec (=  42.373 min)
Startup calculation              ...       30.907 sec (=   0.515 min)   1.2 %
SCF iterations                   ...      890.894 sec (=  14.848 min)  35.0 %
Property integrals               ...        2.175 sec (=   0.036 min)   0.1 %
Property calculations            ...        1.207 sec (=   0.020 min)   0.0 %
CIS module                       ...     1617.214 sec (=  26.954 min)  63.6 %
                             ****ORCA TERMINATED NORMALLY****
TOTAL RUN TIME: 0 days 0 hours 42 minutes 23 seconds 887 msec
