
                                 *****************
                                 * O   R   C   A *
                                 *****************

                                            #,                                       
                                            ###                                      
                                            ####                                     
                                            #####                                    
                                            ######                                   
                                           ########,                                 
                                     ,,################,,,,,                         
                               ,,#################################,,                 
                          ,,##########################################,,             
                       ,#########################################, ''#####,          
                    ,#############################################,,   '####,        
                  ,##################################################,,,,####,       
                ,###########''''           ''''###############################       
              ,#####''   ,,,,##########,,,,          '''####'''          '####       
            ,##' ,,,,###########################,,,                        '##       
           ' ,,###''''                  '''############,,,                           
         ,,##''                                '''############,,,,        ,,,,,,###''
      ,#''                                            '''#######################'''  
     '                                                          ''''####''''         
             ,#######,   #######,   ,#######,      ##                                
            ,#'     '#,  ##    ##  ,#'     '#,    #''#        ,####,    ,#,          
            ##       ##  ##   ,#'  ##            #'  '#       #'       ,# #          
            ##       ##  #######   ##           ,######,      #####,      #          
            '#,     ,#'  ##    ##  '#,     ,#' ,#      #,     #,   #      #          
             '#######'   ##     ##  '#######'  #'      '#     '####' #    #          



                #########################################################
                #                        -***-                          #
                #          Department of theory and spectroscopy        #
                #                                                       #
                #                      Frank Neese                      #
                #                                                       #
                #     Directorship, Architecture, Infrastructure        #
                #                    SHARK, DRIVERS                     #
                #        Core code/Algorithms in most modules           #
                #                                                       #
                #        Max Planck Institute fuer Kohlenforschung      #
                #                Kaiser Wilhelm Platz 1                 #
                #                 D-45470 Muelheim/Ruhr                 #
                #                      Germany                          #
                #                                                       #
                #                  All rights reserved                  #
                #                        -***-                          #
                #########################################################


                         Program Version 6.1.1  -  RELEASE   -


 With contributions from (in alphabetic order):
[Max-Planck-Institut fuer Kohlenforschung]                               
  Daniel Aravena         : Magnetic Suceptibility                        
  Michael Atanasov       : Ab Initio Ligand Field Theory (pilot matlab implementation)
  Alexander A. Auer      : GIAO ZORA, VPT2 properties, NMR spectrum      
  Ute Becker             : All parallelization in ORCA, NUMFREQ, NUMCALC 
  Giovanni Bistoni       : ED, misc. LED, open-shell LED, HFLD           
  Dmytro Bykov           : pre 5.0 version of the SCF Hessian            
  Marcos Casanova-Páez   : Triplet and SCS-CIS(D). UHF-(DLPNO)-IP/EA/STEOM-CCSD. UHF-CVS-IP/STEOM-CCSD   
  Vijay G. Chilkuri      : MRCI spin determinant printing, contributions to CSF-ICE 
  Pauline Colinet        : FMM embedding                                 
  Dipayan Datta          : RHF DLPNO-CCSD density                        
  Achintya Kumar Dutta   : EOM-CC, STEOM-CC                              
  Nicolas Foglia         : Exact transition moments, OPA infrastructure, MCD improvements    
  Dmitry Ganyushin       : Spin-Orbit,Spin-Spin,Magnetic field MRCI      
  Miquel Garcia-Rates    : C-PCM and meta-GGA Hessian, CCSD/C-PCM, Gaussian charge scheme 
  Tiago L. C. Gouveia    : GS-ROHF, GS-ROCIS                             
  Yang Guo               : DLPNO-NEVPT2, F12-NEVPT2, CIM, IAO-localization        
  Andreas Hansen         : Spin unrestricted coupled pair/coupled cluster methods 
  Ingolf Harden          : AUTO-CI MPn and infrastructure                
  Benjamin Helmich-Paris : MC-RPA, TRAH-(SCF,CASSCF), AVAS, COSX integrals, SCF dyn. polar., MC-PDFT, srDFT 
  Lee Huntington         : MR-EOM, pCC                                   
  Robert Izsak           : Overlap fitted RIJCOSX, COSX-SCS-MP3, EOM     
  Riya Kayal             : Wick's Theorem for AUTO-CI, AUTO-CI UHF-CCSDT 
  Emily Kempfer          : AUTO-CI RHF CISDT and CCSDT, approximate NEVPT4
  Christian Kollmar      : KDIIS, OOCD, Brueckner-CCSD(T), CCSD density, CASPT2, CASPT2-K, improved NEVPT2 
  Axel Koslowski         : Symmetry handling                             
  Simone Kossmann        : meta-GGA functionals, TD-DFT gradient, OOMP2, (MP2 Hessian; deprecated post 5.0) 
  Lucas Lang             : DCDCAS, Hyperfine gauge corrections, ICE-SOC+SSC
  Marvin Lechner         : AUTO-CI (C++ implementation), FIC-MRCC        
  Spencer Leger          : CASSCF response                               
  Dagmar Lenk            : GEPOL surface, SMD, ORCA-2-JSON               
  Dimitrios Liakos       : Extrapolation schemes; Compound Job, Property file
  Dimitrios Manganas     : Further ROCIS development; embedding schemes. LFT, Crystal Embedding 
  Dimitrios Pantazis     : SARC Basis sets                               
  Anastasios Papadopoulos: AUTO-CI, single reference methods and gradients 
  Taras Petrenko         : pre 6.0 DFT Hessian and TD-DFT gradient,  ECA, NRVS 
  Petra Pikulova         : Analytic Raman intensities                    
  Peter Pinski           : DLPNO-MP2, DLPNO-MP2 Gradient                 
  Shashank Vittal Rao    : ES-AILFT, MagRelax                            
  Christoph Reimann      : Effective Core Potentials                     
  Marius Retegan         : Local ZFS, SOC                                
  Christoph Riplinger    : Optimizer, TS searches, QM/MM, DLPNO-CCSD(T), (RO)-DLPNO pert. Triples 
  Michael Roemelt        : Original ROCIS implementation, recursive CI coupling coefficients
  Masaaki Saitow         : Open-shell DLPNO-CCSD energy and density      
  Barbara Sandhoefer     : DKH picture change effects                    
  Yorick L. A. Schmerwitz: GMF and freeze-and-release deltaSCF, NEB S-IDPP initial path                    
  Kantharuban Sivalingam : CASSCF convergence/infrastructure, NEVPT2, NEVPT3, NEVPT4(SD), FIC-MRCI and CEPA variants
  Bernardo de Souza      : ESD, SOC TD-DFT                               
  Georgi L. Stoychev     : AutoAux, RI-MP2 NMR, DLPNO-MP2 response, X2C  
  Van Anh Tran           : RI-MP2 g-tensors                              
  Willem Van den Heuvel  : Paramagnetic NMR                              
  Zikuan Wang            : NOTCH, Electric field optimization            
  Frank Wennmohs         : Technical directorship and infrastructure     
  Hang Xu                : AUTO-CI-Response properties                   
                                                                         
[FACCTs GmbH]                                                            
  Markus Bursch, Nicolas Foglia, Miquel Garcia-Rates, Ingolf Harden, Hagen Neugebauer, Anastasios Papadopoulos, 
  Christoph Riplinger, Bernardo de Souza, Georgi L. Stoychev                                                    
                                                                 
  APM, various basis sets, CI-OPT, improved COSX, DLPNO-Multilevel,           
  DOCKER, DRACO, updates on ESD, Fragmentator, GOAT, IRC, LR-CPCM, L-BFGS, MBIS, meta-GGA TD-DFT gradient, ML-optimized integration grids, 
  MM, NACMEs, nearIR, NEB, NEB-TS, NL-DFT gradient (VV10), 2- and 3-layer-ONIOM, interface openCOSMO-RS, QMMM,   
  Crystal-QMMM, RESP, rigid body optimization, SF, symmetry and pop. for TD-DFT, various functionals, SOLVATOR                                   
                                                                         
[Other institutions]                                                     
  V. Asgeirsson          : NEB                                           
  Christoph Bannwarth    : sTDA-DFT, sTD-DFT, PBEh-3c, B97-3c, D3        
  Giovanni Bistoni       : ETS/NOCV, ADLD/ADEX, COVALED                  
  Martin Brehm           : Molecular dynamics                            
  Ronald Cardenas        : ETS/NOCV                                      
  Martina Colucci        : COVALED                                       
  Sebastian Ehlert       : rSCAN, r2SCAN, r2SCAN-3c, D4, dhf basis sets  
  Marvin Friede          : D4 for Fr, Ra, Ac-Lr                          
  Lars Goerigk           : TD-DFT with DH, B97 family of functionals     
  Stefan Grimme          : VdW corrections, initial TS optimization, DFT functionals, gCP, sTDA/sTD-DF 
  Waldemar Hujo          : DFT-NL                                        
  H. Jonsson             : NEB                                           
  Holger Kruse           : gCP                                           
  Marcel Mueller         : wB97X-3c, vDZP basis set                      
  Hagen Neugebauer       : wr2SCAN, Native XTB                           
  Gianluca Regni         : ADLD/ADEX                                     
  Tobias Risthaus        : pre 6.0 range-separated hybrid DFT and stability analysis
  Lukas Wittmann         : regularized MP2, r2SCAN double-hybrids, wr2SCAN        
                                                                         
We gratefully acknowledge several colleagues who have allowed us to      
interface, adapt or use parts of their codes:                            
  Ed Valeev, F. Pavosevic, A. Kumar             : LibInt (2-el integral package), F12 methods 
  Garnet Chan, S. Sharma, J. Yang, R. Olivares  : DMRG                   
  Ulf Ekstrom                                   : XCFun DFT Library      
  Mihaly Kallay                                 : mrcc  (arbitrary order and MRCC methods)
  Frank Weinhold                                : gennbo (NPA and NBO analysis)           
  Simon Mueller                                 : openCOSMO-RS                            
  Christopher J. Cramer and Donald G. Truhlar   : smd solvation model                     
  S Lehtola, MJT Oliveira, MAL Marques          : LibXC Library                           
  Liviu Ungur et al                             : ANISO software                          


 Your calculation uses the libint2 library for the computation of 2-el integrals
 For citations please refer to: http://libint.valeyev.net

 Your ORCA version has been built with support for libXC version: 7.0.0
 For citations please refer to: https://libxc.gitlab.io

 This ORCA versions uses:
   CBLAS   interface :  Fast vector & matrix operations
   LAPACKE interface :  Fast linear algebra routines
   Shared memory     :  Shared parallel matrices


  ***********************************
  * Starting time: Tue Jul 21 12:26:10 2026
  * Host name:     DESKTOP-19Q153E
  * Process ID:    31472
  * Working dir.:  C:\Users\ysm04\Documents\etc\uv_vis\calculations\02_tddft_orca\diketo\diketo_c012\b3lyp_def2svp\none
  ***********************************

NOTE: MaxCore=2500 MB was set to SCF,MP2,MDCI,CIPSI,MRCI,RASCI and CIS
      => If you want to overwrite this, your respective input block should be placed after the MaxCore statement
================================================================================

----- Orbital basis set information -----
Your calculation utilizes the basis: def2-SVP
   F. Weigend and R. Ahlrichs, Phys. Chem. Chem. Phys. 7, 3297 (2005).

----- AuxJ basis set information -----
Your calculation utilizes the auxiliary basis: def2/J
   H-Rn: F. Weigend, Phys. Chem. Chem. Phys. 8, 1057 (2006).
   Fr-Lr: K. Eichkorn, F. Weigend, O. Treutler, R. Ahlrichs; Theor. Chem. Acc. 97, 119 (1997).

================================================================================
                                        WARNINGS
                       Please study these warnings very carefully!
================================================================================


WARNING: CIS/ROCIS methods need fully converged wavefunctions
  ===> : Setting SCFConvForced true
         You can overwrite this default with %scf ConvForced false 


================================================================================
                                       INPUT FILE
================================================================================
NAME = td.inp
|  1> # diketo / diketo_c012 / b3lyp_def2svp / solvent=none
|  2> ! B3LYP def2-SVP RIJCOSX def2/J TightSCF
|  3> %pal nprocs 4 end
|  4> %maxcore 2500
|  5> %scf
|  6>   MaxIter 300
|  7> end
|  8> %tddft
|  9>   nroots 18
| 10>   tda    true
| 11>   maxdim 5
| 12> end
| 13> * xyz 0 1
| 14> C     -4.9768236900    -0.2275318000    -1.8751020300
| 15> C     -4.9564652500     0.3840224900    -0.4709620900
| 16> C     -5.3392569300     1.8674297600    -0.5874647800
| 17> C     -5.9918233200    -0.3549541500     0.3910047300
| 18> C     -3.5964931800     0.2776794100     0.1976873700
| 19> C     -3.4182593600     0.7992011000     1.4802577400
| 20> C     -2.2032282900     0.7201393700     2.1218727900
| 21> C     -1.1043305000     0.1061684800     1.5121658000
| 22> C     -1.2753203100    -0.4159367500     0.2310613200
| 23> C     -2.4975101200    -0.3249235100    -0.4083238800
| 24> C      0.1622064000     0.0565798800     2.2578787900
| 25> O      0.2821043500     0.5653264000     3.3614271100
| 26> C      1.3496169700    -0.6448366400     1.6277398600
| 27> C      1.9954020300     0.2091822600     0.5411906900
| 28> O      1.4204097700     1.1625214500     0.0460649400
| 29> C      3.3548173500    -0.1768403500     0.1306287000
| 30> C      4.0662266800     0.7054673700    -0.6867420000
| 31> C      5.3480967400     0.4266582300    -1.1104032400
| 32> C      5.9565893800    -0.7700967200    -0.7301467400
| 33> O      7.2026193800    -1.1528740300    -1.0774347700
| 34> C      7.9946571900    -0.2933555400    -1.8773010700
| 35> C      5.2444380500    -1.6689340500     0.0752613700
| 36> C      3.9709081500    -1.3783391900     0.5013208800
| 37> H     -4.7398881300    -1.2883599500    -1.8440501800
| 38> H     -5.9721371800    -0.1183371900    -2.3003465900
| 39> H     -4.2738009000     0.2789363800    -2.5322500800
| 40> H     -5.4159965300     2.3366842300     0.3891906500
| 41> H     -4.5903561300     2.4044884100    -1.1659922200
| 42> H     -6.2995742900     1.9643987100    -1.0887119800
| 43> H     -5.7136433300    -1.4012436800     0.4990119100
| 44> H     -6.9705819500    -0.3035615900    -0.0802973500
| 45> H     -6.0674517300     0.0821393400     1.3824810200
| 46> H     -4.2397802600     1.2784476900     1.9898151500
| 47> H     -2.0741028800     1.1301128000     3.1132185800
| 48> H     -0.4541429200    -0.8834849200    -0.2889178200
| 49> H     -2.5810401000    -0.7376688100    -1.4000006100
| 50> H      1.0468316400    -1.5966004100     1.1904828200
| 51> H      2.0850561300    -0.8229650200     2.4141565900
| 52> H      3.5870970700     1.6290052700    -0.9771590200
| 53> H      5.8636426100     1.1399123500    -1.7324726400
| 54> H      8.9447921500    -0.8095007900    -1.9996697600
| 55> H      7.5369935500    -0.1311534000    -2.8566268400
| 56> H      8.1601067400     0.6666028200    -1.3813848100
| 57> H      5.7270134200    -2.5927795600     0.3523195500
| 58> H      3.4523815400    -2.0968261500     1.1147705700
| 59> *
| 60> 
| 61>                          ****END OF INPUT****
================================================================================

                       ****************************
                       * Single Point Calculation *
                       ****************************

---------------------------------
CARTESIAN COORDINATES (ANGSTROEM)
---------------------------------
  C     -4.976824   -0.227532   -1.875102
  C     -4.956465    0.384022   -0.470962
  C     -5.339257    1.867430   -0.587465
  C     -5.991823   -0.354954    0.391005
  C     -3.596493    0.277679    0.197687
  C     -3.418259    0.799201    1.480258
  C     -2.203228    0.720139    2.121873
  C     -1.104330    0.106168    1.512166
  C     -1.275320   -0.415937    0.231061
  C     -2.497510   -0.324924   -0.408324
  C      0.162206    0.056580    2.257879
  O      0.282104    0.565326    3.361427
  C      1.349617   -0.644837    1.627740
  C      1.995402    0.209182    0.541191
  O      1.420410    1.162521    0.046065
  C      3.354817   -0.176840    0.130629
  C      4.066227    0.705467   -0.686742
  C      5.348097    0.426658   -1.110403
  C      5.956589   -0.770097   -0.730147
  O      7.202619   -1.152874   -1.077435
  C      7.994657   -0.293356   -1.877301
  C      5.244438   -1.668934    0.075261
  C      3.970908   -1.378339    0.501321
  H     -4.739888   -1.288360   -1.844050
  H     -5.972137   -0.118337   -2.300347
  H     -4.273801    0.278936   -2.532250
  H     -5.415997    2.336684    0.389191
  H     -4.590356    2.404488   -1.165992
  H     -6.299574    1.964399   -1.088712
  H     -5.713643   -1.401244    0.499012
  H     -6.970582   -0.303562   -0.080297
  H     -6.067452    0.082139    1.382481
  H     -4.239780    1.278448    1.989815
  H     -2.074103    1.130113    3.113219
  H     -0.454143   -0.883485   -0.288918
  H     -2.581040   -0.737669   -1.400001
  H      1.046832   -1.596600    1.190483
  H      2.085056   -0.822965    2.414157
  H      3.587097    1.629005   -0.977159
  H      5.863643    1.139912   -1.732473
  H      8.944792   -0.809501   -1.999670
  H      7.536994   -0.131153   -2.856627
  H      8.160107    0.666603   -1.381385
  H      5.727013   -2.592780    0.352320
  H      3.452382   -2.096826    1.114771

----------------------------
CARTESIAN COORDINATES (A.U.)
----------------------------
  NO LB      ZA    FRAG     MASS         X           Y           Z
   0 C     6.0000    0    12.011   -9.404834   -0.429973   -3.543429
   1 C     6.0000    0    12.011   -9.366362    0.725697   -0.889989
   2 C     6.0000    0    12.011  -10.089733    3.528931   -1.110148
   3 C     6.0000    0    12.011  -11.322905   -0.670766    0.738892
   4 C     6.0000    0    12.011   -6.796387    0.524738    0.373575
   5 C     6.0000    0    12.011   -6.459574    1.510271    2.797282
   6 C     6.0000    0    12.011   -4.163498    1.360866    4.009758
   7 C     6.0000    0    12.011   -2.086882    0.200629    2.857579
   8 C     6.0000    0    12.011   -2.410006   -0.786007    0.436643
   9 C     6.0000    0    12.011   -4.719610   -0.614016   -0.771620
  10 C     6.0000    0    12.011    0.306526    0.106920    4.266773
  11 O     8.0000    0    15.999    0.533100    1.068312    6.352177
  12 C     6.0000    0    12.011    2.550406   -1.218565    3.075983
  13 C     6.0000    0    12.011    3.770763    0.395297    1.022702
  14 O     8.0000    0    15.999    2.684185    2.196847    0.087050
  15 C     6.0000    0    12.011    6.339686   -0.334180    0.246852
  16 C     6.0000    0    12.011    7.684055    1.333140   -1.297754
  17 C     6.0000    0    12.011   10.106438    0.806267   -2.098358
  18 C     6.0000    0    12.011   11.256323   -1.455272   -1.379777
  19 O     8.0000    0    15.999   13.610978   -2.178616   -2.036057
  20 C     6.0000    0    12.011   15.107713   -0.554362   -3.547585
  21 C     6.0000    0    12.011    9.910552   -3.153828    0.142223
  22 C     6.0000    0    12.011    7.503929   -2.604684    0.947359
  23 H     1.0000    0     1.008   -8.957090   -2.434647   -3.484750
  24 H     1.0000    0     1.008  -11.285704   -0.223625   -4.347025
  25 H     1.0000    0     1.008   -8.076313    0.527113   -4.785259
  26 H     1.0000    0     1.008  -10.234750    4.415693    0.735464
  27 H     1.0000    0     1.008   -8.674516    4.543825   -2.203406
  28 H     1.0000    0     1.008  -11.904470    3.712176   -2.057367
  29 H     1.0000    0     1.008  -10.797221   -2.647967    0.942996
  30 H     1.0000    0     1.008  -13.172491   -0.573648   -0.151740
  31 H     1.0000    0     1.008  -11.465822    0.155221    2.612511
  32 H     1.0000    0     1.008   -8.012024    2.415916    3.760206
  33 H     1.0000    0     1.008   -3.919486    2.135604    5.883131
  34 H     1.0000    0     1.008   -0.858206   -1.669545   -0.545976
  35 H     1.0000    0     1.008   -4.877459   -1.393992   -2.645618
  36 H     1.0000    0     1.008    1.978225   -3.017138    2.249686
  37 H     1.0000    0     1.008    3.940185   -1.555179    4.562095
  38 H     1.0000    0     1.008    6.778631    3.078374   -1.846563
  39 H     1.0000    0     1.008   11.080679    2.154122   -3.273899
  40 H     1.0000    0     1.008   16.903207   -1.529735   -3.778828
  41 H     1.0000    0     1.008   14.242854   -0.247844   -5.398242
  42 H     1.0000    0     1.008   15.420367    1.259697   -2.610439
  43 H     1.0000    0     1.008   10.822487   -4.899643    0.665787
  44 H     1.0000    0     1.008    6.524056   -3.962427    2.106611

--------------------------------
INTERNAL COORDINATES (ANGSTROEM)
--------------------------------
 C      0   0   0     0.000000000000     0.00000000     0.00000000
 C      1   0   0     1.531672969925     0.00000000     0.00000000
 C      2   1   0     1.536424249920   108.22018036     0.00000000
 C      2   1   3     1.536567475369   108.25724185   118.97282119
 C      2   1   3     1.519185631252   112.79523109   239.44720332
 C      5   2   1     1.395972392898   119.50682455   179.58659541
 C      6   5   2     1.376307062614   121.30343897   179.83393271
 C      7   6   5     1.398670518846   121.03789198   359.63607015
 C      8   7   6     1.393936897780   117.94829808     0.39181602
 C      9   8   7     1.382333091372   120.59027377     0.00000000
 C      8   7   6     1.470599405605   118.06076597   180.08632573
 O     11   8   7     1.221072247904   121.92392323   357.85895474
 C     11   8   7     1.516246703996   118.64085661   178.07326051
 C     13  11   8     1.525442796077   111.62699605    76.37969480
 O     14  13  11     1.218450334877   121.85030315   343.50139821
 C     14  13  11     1.471592543918   116.29133614   163.10654403
 C     16  14  13     1.397377904792   117.89540024   190.76893629
 C     17  16  14     1.378555125322   121.69924068   179.57131572
 C     18  17  16     1.395378339045   119.68311439     0.62286928
 O     19  18  17     1.348969312376   125.17022914   180.14780898
 C     20  19  18     1.416291645459   119.32410566     0.81128183
 C     19  18  17     1.401338747868   119.02061294     0.20972815
 C     22  19  18     1.373990715003   120.90396710   359.28919144
 H      1   2   3     1.087409325329   111.12708802   181.65497638
 H      1   2   3     1.087844355613   109.29552536   300.70903514
 H      1   2   3     1.087471664105   111.06510846    59.73056198
 H      3   2   1     1.086252527165   111.50064568   175.62519369
 H      3   2   1     1.088107715538   110.20496227   295.88677215
 H      3   2   1     1.087594209570   109.93888725    55.53830068
 H      4   2   1     1.088012609465   110.23634128    63.47554426
 H      4   2   1     1.087536344972   109.91246838   303.82854822
 H      4   2   1     1.086183966477   111.43476514   183.77013977
 H      6   5   2     1.078991490814   120.17306721   359.69297333
 H      7   6   5     1.080517496464   120.75826745   179.76866960
 H      9   8   7     1.078569377997   120.80040911   178.90607177
 H     10   9   8     1.077385110838   117.97391416   179.65595453
 H     13  11   8     1.090287553344   110.67183961   315.16587763
 H     13  11   8     1.091353174296   107.68388800   195.52271294
 H     17  16  14     1.080198815691   118.11715869     0.11966315
 H     18  17  16     1.077724140115   119.23241493   180.57983791
 H     21  20  19     1.088180342408   105.30419961   178.88835651
 H     21  20  19     1.093089431558   111.21649168   297.51061393
 H     21  20  19     1.093081215401   111.18565750    60.26741660
 H     22  19  18     1.078485395906   118.01467247   179.46946189
 H     23  22  19     1.077689138448   118.78177113   179.64288249

---------------------------
INTERNAL COORDINATES (A.U.)
---------------------------
 C      0   0   0     0.000000000000     0.00000000     0.00000000
 C      1   0   0     2.894442439889     0.00000000     0.00000000
 C      2   1   0     2.903421057865   108.22018036     0.00000000
 C      2   1   3     2.903691714738   108.25724185   118.97282119
 C      2   1   3     2.870844789654   112.79523109   239.44720332
 C      5   2   1     2.638005513092   119.50682455   179.58659541
 C      6   5   2     2.600843424523   121.30343897   179.83393271
 C      7   6   5     2.643104232209   121.03789198   359.63607015
 C      8   7   6     2.634158984772   117.94829808     0.39181602
 C      9   8   7     2.612230968550   120.59027377     0.00000000
 C      8   7   6     2.779030129301   118.06076597   180.08632573
 O     11   8   7     2.307492138270   121.92392323   357.85895474
 C     11   8   7     2.865291022013   118.64085661   178.07326051
 C     13  11   8     2.882669117549   111.62699605    76.37969480
 O     14  13  11     2.302537440703   121.85030315   343.50139821
 C     14  13  11     2.780906888725   116.29133614   163.10654403
 C     16  14  13     2.640661545650   117.89540024   190.76893629
 C     17  16  14     2.605091647371   121.69924068   179.57131572
 C     18  17  16     2.636882914001   119.68311439     0.62286928
 O     19  18  17     2.549182563455   125.17022914   180.14780898
 C     20  19  18     2.676403335678   119.32410566     0.81128183
 C     19  18  17     2.648146454323   119.02061294     0.20972815
 C     22  19  18     2.596466161906   120.90396710   359.28919144
 H      1   2   3     2.054905820345   111.12708802   181.65497638
 H      1   2   3     2.055727908440   109.29552536   300.70903514
 H      1   2   3     2.055023623558   111.06510846    59.73056198
 H      3   2   1     2.052719788621   111.50064568   175.62519369
 H      3   2   1     2.056225586574   110.20496227   295.88677215
 H      3   2   1     2.055255200925   109.93888725    55.53830068
 H      4   2   1     2.056045862143   110.23634128    63.47554426
 H      4   2   1     2.055145852683   109.91246838   303.82854822
 H      4   2   1     2.052590227698   111.43476514   183.77013977
 H      6   5   2     2.038998418470   120.17306721   359.69297333
 H      7   6   5     2.041882151227   120.75826745   179.76866960
 H      9   8   7     2.038200740848   120.80040911   178.90607177
 H     10   9   8     2.035962800247   117.97391416   179.65595453
 H     13  11   8     2.060344883044   110.67183961   315.16587763
 H     13  11   8     2.062358614806   107.68388800   195.52271294
 H     17  16  14     2.041279931843   118.11715869     0.11966315
 H     18  17  16     2.036603472734   119.23241493   180.57983791
 H     21  20  19     2.056362831469   105.30419961   178.88835651
 H     21  20  19     2.065639665529   111.21649168   297.51061393
 H     21  20  19     2.065624139241   111.18565750    60.26741660
 H     22  19  18     2.038042037696   118.01467247   179.46946189
 H     23  22  19     2.036537329169   118.78177113   179.64288249

---------------------
BASIS SET INFORMATION
---------------------
There are 3 groups of distinct atoms

 Group   1 Type C   : 7s4p1d contracted to 3s2p1d pattern {511/31/1}
 Group   2 Type O   : 7s4p1d contracted to 3s2p1d pattern {511/31/1}
 Group   3 Type H   : 4s1p contracted to 2s1p pattern {31/1}

Atom   0C    basis set group =>   1
Atom   1C    basis set group =>   1
Atom   2C    basis set group =>   1
Atom   3C    basis set group =>   1
Atom   4C    basis set group =>   1
Atom   5C    basis set group =>   1
Atom   6C    basis set group =>   1
Atom   7C    basis set group =>   1
Atom   8C    basis set group =>   1
Atom   9C    basis set group =>   1
Atom  10C    basis set group =>   1
Atom  11O    basis set group =>   2
Atom  12C    basis set group =>   1
Atom  13C    basis set group =>   1
Atom  14O    basis set group =>   2
Atom  15C    basis set group =>   1
Atom  16C    basis set group =>   1
Atom  17C    basis set group =>   1
Atom  18C    basis set group =>   1
Atom  19O    basis set group =>   2
Atom  20C    basis set group =>   1
Atom  21C    basis set group =>   1
Atom  22C    basis set group =>   1
Atom  23H    basis set group =>   3
Atom  24H    basis set group =>   3
Atom  25H    basis set group =>   3
Atom  26H    basis set group =>   3
Atom  27H    basis set group =>   3
Atom  28H    basis set group =>   3
Atom  29H    basis set group =>   3
Atom  30H    basis set group =>   3
Atom  31H    basis set group =>   3
Atom  32H    basis set group =>   3
Atom  33H    basis set group =>   3
Atom  34H    basis set group =>   3
Atom  35H    basis set group =>   3
Atom  36H    basis set group =>   3
Atom  37H    basis set group =>   3
Atom  38H    basis set group =>   3
Atom  39H    basis set group =>   3
Atom  40H    basis set group =>   3
Atom  41H    basis set group =>   3
Atom  42H    basis set group =>   3
Atom  43H    basis set group =>   3
Atom  44H    basis set group =>   3
---------------------------------
AUXILIARY/J BASIS SET INFORMATION
---------------------------------
There are 3 groups of distinct atoms

 Group   1 Type C   : 12s5p4d2f1g contracted to 6s4p3d1f1g pattern {711111/2111/211/2/1}
 Group   2 Type O   : 12s5p4d2f1g contracted to 6s4p3d1f1g pattern {711111/2111/211/2/1}
 Group   3 Type H   : 5s2p1d contracted to 3s1p1d pattern {311/2/1}

Atom   0C    basis set group =>   1
Atom   1C    basis set group =>   1
Atom   2C    basis set group =>   1
Atom   3C    basis set group =>   1
Atom   4C    basis set group =>   1
Atom   5C    basis set group =>   1
Atom   6C    basis set group =>   1
Atom   7C    basis set group =>   1
Atom   8C    basis set group =>   1
Atom   9C    basis set group =>   1
Atom  10C    basis set group =>   1
Atom  11O    basis set group =>   2
Atom  12C    basis set group =>   1
Atom  13C    basis set group =>   1
Atom  14O    basis set group =>   2
Atom  15C    basis set group =>   1
Atom  16C    basis set group =>   1
Atom  17C    basis set group =>   1
Atom  18C    basis set group =>   1
Atom  19O    basis set group =>   2
Atom  20C    basis set group =>   1
Atom  21C    basis set group =>   1
Atom  22C    basis set group =>   1
Atom  23H    basis set group =>   3
Atom  24H    basis set group =>   3
Atom  25H    basis set group =>   3
Atom  26H    basis set group =>   3
Atom  27H    basis set group =>   3
Atom  28H    basis set group =>   3
Atom  29H    basis set group =>   3
Atom  30H    basis set group =>   3
Atom  31H    basis set group =>   3
Atom  32H    basis set group =>   3
Atom  33H    basis set group =>   3
Atom  34H    basis set group =>   3
Atom  35H    basis set group =>   3
Atom  36H    basis set group =>   3
Atom  37H    basis set group =>   3
Atom  38H    basis set group =>   3
Atom  39H    basis set group =>   3
Atom  40H    basis set group =>   3
Atom  41H    basis set group =>   3
Atom  42H    basis set group =>   3
Atom  43H    basis set group =>   3
Atom  44H    basis set group =>   3


           ************************************************************
           *        Program running with 4 parallel MPI-processes     *
           *              working on a common directory               *
           ************************************************************
------------------------------------------------------------------------------
                             ORCA STARTUP CALCULATIONS
                           -- RI-GTO INTEGRALS CHOSEN --
------------------------------------------------------------------------------
------------------------------------------------------------------------------
                   ___                                                        
                  /   \      - P O W E R E D   B Y -                         
                 /     \                                                     
                 |  |  |   _    _      __       _____    __    __             
                 |  |  |  | |  | |    /  \     |  _  \  |  |  /  |          
                  \  \/   | |  | |   /    \    | | | |  |  | /  /          
                 / \  \   | |__| |  /  /\  \   | |_| |  |  |/  /          
                |  |  |   |  __  | /  /__\  \  |    /   |      \           
                |  |  |   | |  | | |   __   |  |    \   |  |\   \          
                \     /   | |  | | |  |  |  |  | |\  \  |  | \   \       
                 \___/    |_|  |_| |__|  |__|  |_| \__\ |__|  \__/        
                                                                              
                      - O R C A' S   B I G   F R I E N D -                    
                                      &                                       
                       - I N T E G R A L  F E E D E R -                       
                                                                              
 v1 FN, 2020, v2 2021, v3 2022-2024                                           
------------------------------------------------------------------------------


----------------------
SHARK INTEGRAL PACKAGE
----------------------

Number of atoms                             ...     45
Number of basis functions                   ...    432
Number of shells                            ...    204
Maximum angular momentum                    ...      2
Integral batch strategy                     ... SHARK/LIBINT Hybrid
RI-J (if used) integral strategy            ... SPLIT-RIJ (Revised 2003 algorithm where possible)
Printlevel                                  ...      1
Contraction scheme used                     ... SEGMENTED contraction
Prescreening option                         ... SCHWARTZ
   Thresh                                   ... 2.500e-11
   Tcut                                     ... 2.500e-12
   Tpresel                                  ... 2.500e-12 
Coulomb Range Separation                    ... NOT USED
Exchange Range Separation                   ... NOT USED
Multipole approximations                    ... NOT USED
Finite Nucleus Model                        ... NOT USED
CABS basis                                  ... NOT available
Auxiliary Coulomb fitting basis             ... AVAILABLE
   # of basis functions in Aux-J            ...   1369
   # of shells in Aux-J                     ...    455
   Maximum angular momentum in Aux-J        ...      4
Auxiliary J/K fitting basis                 ... NOT available
Auxiliary Correlation fitting basis         ... NOT available
Auxiliary 'external' fitting basis          ... NOT available

Checking pre-screening integrals            ... done (  0.0 sec) Dimension = 204
   => SHARK Basis and OBASIS are compatible. Storing Pre-screening
Shell pair information
Shell pair cut-off parameter TPreSel        ...   2.5e-12
Total number of shell pairs                 ...     20910
Shell pairs after pre-screening             ...     12787
Total number of primitive shell pairs       ...     75056
Primitive shell pairs kept                  ...     29877
          la=0 lb=0:   4038 shell pairs
          la=1 lb=0:   4783 shell pairs
          la=1 lb=1:   1465 shell pairs
          la=2 lb=0:   1480 shell pairs
          la=2 lb=1:    880 shell pairs
          la=2 lb=2:    141 shell pairs

Checking whether 4 symmetric matrices of dimension 432 fit in memory
:Max Core in MB      =   2500.00
 MB in use           =     15.91
 MB left             =   2484.09
 MB needed           =      2.85
 Data fit in memory  = YES
Calculating RI/J V-Matrix + Cholesky decomp.... done (  0.1 sec)
Calculating Nuclear repulsion               ... done (  0.0 sec) ENN=   1767.718412837590 Eh

Diagonalization of the overlap matrix:
Smallest eigenvalue                        ... 2.462e-04
Time for diagonalization                   ...    0.018 sec
Threshold for overlap eigenvalues          ... 1.000e-07
Number of eigenvalues below threshold      ... 0
Time for construction of square roots      ...    0.017 sec
Total time needed                          ...    0.038 sec

-------------------
DFT GRID GENERATION
-------------------

General Integration Accuracy     IntAcc      ... 4.388
Radial Grid Type                 RadialGrid  ... OptM3 with GC (2021)
Angular Grid (max. ang.)         AngularGrid ... 4 (Lebedev-302)
Angular grid pruning method      GridPruning ... 4 (adaptive)
Weight generation scheme         WeightScheme... mBecke (2022)
Basis function cutoff            BFCut       ... 1.0000e-11
Integration weight cutoff        WCut        ... 1.0000e-14
Partially contracted basis set               ... off
Rotationally invariant grid construction     ... off
Angular grids for H and He will be reduced by one unit

Total number of grid points                  ...   207536
Total number of batches                      ...     3262
Average number of points per batch           ...       63
Average number of grid points per atom       ...     4612

--------------------
COSX GRID GENERATION
--------------------

GRIDX 1
-------
General Integration Accuracy     IntAcc      ... 3.816
Radial Grid Type                 RadialGrid  ... OptM3 with GC (2021)
Angular Grid (max. ang.)         AngularGrid ... 1 (Lebedev-50)
Angular grid pruning method      GridPruning ... 4 (adaptive)
Weight generation scheme         WeightScheme... mBecke (2022)
Basis function cutoff            BFCut       ... 1.0000e-11
Integration weight cutoff        WCut        ... 1.0000e-14
Partially contracted basis set               ... on
Rotationally invariant grid construction     ... off
Angular grids for H and He will be reduced by one unit

Total number of grid points                  ...    26409
Total number of batches                      ...      232
Average number of points per batch           ...      113
Average number of grid points per atom       ...      587
UseSFitting                                  ... on

GRIDX 2
-------
General Integration Accuracy     IntAcc      ... 4.020
Radial Grid Type                 RadialGrid  ... OptM3 with GC (2021)
Angular Grid (max. ang.)         AngularGrid ... 2 (Lebedev-110)
Angular grid pruning method      GridPruning ... 4 (adaptive)
Weight generation scheme         WeightScheme... mBecke (2022)
Basis function cutoff            BFCut       ... 1.0000e-11
Integration weight cutoff        WCut        ... 1.0000e-14
Partially contracted basis set               ... on
Rotationally invariant grid construction     ... off
Angular grids for H and He will be reduced by one unit

Total number of grid points                  ...    56703
Total number of batches                      ...      468
Average number of points per batch           ...      121
Average number of grid points per atom       ...     1260
UseSFitting                                  ... on

GRIDX 3
-------
General Integration Accuracy     IntAcc      ... 4.338
Radial Grid Type                 RadialGrid  ... OptM3 with GC (2021)
Angular Grid (max. ang.)         AngularGrid ... 3 (Lebedev-194)
Angular grid pruning method      GridPruning ... 4 (adaptive)
Weight generation scheme         WeightScheme... mBecke (2022)
Basis function cutoff            BFCut       ... 1.0000e-11
Integration weight cutoff        WCut        ... 1.0000e-14
Partially contracted basis set               ... on
Rotationally invariant grid construction     ... off
Angular grids for H and He will be reduced by one unit

Total number of grid points                  ...   123766
Total number of batches                      ...      991
Average number of points per batch           ...      124
Average number of grid points per atom       ...     2750
UseSFitting                                  ... on
Grids setup in   4.2 sec
Initializing property integral containers    ... done (  0.1 sec)

SHARK setup successfully completed in   4.7 seconds

Maximum memory used throughout the entire STARTUP-calculation: 59.4 MB


           ************************************************************
           *        Program running with 4 parallel MPI-processes     *
           *              working on a common directory               *
           ************************************************************
-------------------------------------------------------------------------------
                                 ORCA GUESS
                   Start orbitals & Density for SCF / CASSCF
-------------------------------------------------------------------------------

------------
SCF SETTINGS
------------
Hamiltonian:
 Density Functional     Method          .... DFT(GTOs)
 Exchange Functional    Exchange        .... B88
   X-Alpha parameter    XAlpha          ....  0.666667
   Becke's b parameter  XBeta           ....  0.004200
 Correlation Functional Correlation     .... LYP
 LDA part of GGA corr.  LDAOpt          .... VWN-5
 Gradients option       PostSCFGGA      .... off
 Hybrid DFT is turned on
   Fraction HF Exchange ScalHFX         ....  0.200000
   Scaling of DF-GGA-X  ScalDFX         ....  0.720000
   Scaling of DF-GGA-C  ScalDFC         ....  0.810000
   Scaling of DF-LDA-C  ScalLDAC        ....  1.000000
   Perturbative correction              ....  0.000000
   NL short-range parameter             ....  4.800000
 RI-approximation to the Coulomb term is turned on
   Number of AuxJ basis functions       .... 1369
   RIJ-COSX (HFX calculated with COS-X)).... on


General Settings:
 Integral files         IntName         .... td
 Hartree-Fock type      HFTyp           .... RHF
 Total Charge           Charge          ....    0
 Multiplicity           Mult            ....    1
 Number of Electrons    NEL             ....  166
 Basis Dimension        Dim             ....  432
 Nuclear Repulsion      ENuc            ....   1767.7184128376 Eh

Convergence Acceleration:
 AO-DIIS                CNVDIIS         .... on
   Start iteration      DIISMaxIt       ....    12
   Startup error        DIISStart       ....  0.200000
   # of expansion vecs  DIISMaxEq       ....     5
   Bias factor          DIISBfac        ....   1.050
   Max. coefficient     DIISMaxC        ....  10.000
 MO-DIIS                CNVKDIIS        .... off
 Trust-Rad. Augm. Hess. CNVTRAH         .... auto
   Auto Start mean grad. ratio tolernc. ....  1.125000
   Auto Start start iteration           ....    50
   Auto Start num. interpolation iter.  ....    10
   Max. Number of Micro iterations      ....    24
   Max. Number of Macro iterations      .... Maxiter - #DIIS iter
   Number of Davidson start vectors     ....     2
   Converg. threshold    (grad. norm)   ....   1.000e-05
   Grad. Scal. Fac. for Micro threshold ....   0.100
   Minimum threshold for Micro iter.    ....   1.000e-02
   NR start threshold (gradient norm)   ....   1.000e-04
   Initial trust radius                 ....   0.400
   Minimum AH scaling param. (alpha)    ....   1.000
   Maximum AH scaling param. (alpha)    .... 1000.000
   Quad. conv. algorithm                .... NR
   White noise on init. David. guess    .... on
   Maximum white noise                  ....   0.010
   Pseudo random numbers                .... off
   Inactive MOs                         .... canonical
   Orbital update algorithm             .... Taylor
   Preconditioner                       .... Diag
   Full preconditioner red. dimension   ....   250
 SOSCF                 CNVSOSCF           .... on
   Start iteration     SOSCFMaxIt         ....   150
   Startup grad/error  SOSCFStart         ....  0.003300
   Hessian update      SOSCFHessUp        .... L-BFGS
   Autom. constraints  SOSCFAutoConstrain .... off
 Level Shifting         CNVShift        .... on
   Level shift para.    LevelShift      ....    0.2500
   Turn off err/grad.   ShiftErr        ....    0.0010
 Zerner damping         CNVZerner       .... off
 Static damping         CNVDamp         .... on
   Fraction old density DampFac         ....    0.7000
   Max. Damping (<1)    DampMax         ....    0.9800
   Min. Damping (>=0)   DampMin         ....    0.0000
   Turn off err/grad.   DampErr         ....    0.1000

SCF Procedure:
 Maximum # iterations   MaxIter         ....   300
 SCF integral mode      SCFMode         .... Direct
   Integral package                     .... SHARK and LIBINT hybrid scheme
 Reset frequency        DirectResetFreq ....    20
 Integral Threshold     Thresh          ....  2.500e-11 Eh
 Primitive CutOff       TCut            ....  2.500e-12 Eh

Convergence Tolerance:
 Convergence Check Mode ConvCheckMode   .... Total+1el-Energy
 Convergence forced     ConvForced      .... 1
 Energy Change          TolE            ....  1.000e-08 Eh
 1-El. energy change                    ....  1.000e-05 Eh
 Orbital Gradient       TolG            ....  1.000e-05
 Orbital Rotation angle TolX            ....  1.000e-05
 DIIS Error             TolErr          ....  5.000e-07

------------------------------
INITIAL GUESS: MODEL POTENTIAL
------------------------------
Loading Hartree-Fock densities                     ... done
Calculating cut-offs                               ... done
Initializing the effective Hamiltonian             ... done
Setting up the integral package (SHARK)            ... done
Starting the Coulomb interaction                   ... done (   0.5 sec)
Making the grid                                    ... done (   0.6 sec)
Mapping shells                                     ... done
Starting the XC term evaluation                    ... done (   0.5 sec)
  promolecular density results
     # of electrons  =    165.980229832
     EX              =   -134.031029401
     EC              =     -5.600812660
     EX+EC           =   -139.631842062
Transforming the Hamiltonian                       ... done (   0.0 sec)
Diagonalizing the Hamiltonian                      ... done (   0.0 sec)
Back transforming the eigenvectors                 ... done (   0.0 sec)
Now organizing SCF variables                       ... done
                      ------------------
                      INITIAL GUESS DONE (   1.7 sec)
                      ------------------
             **** ENERGY FILE WAS UPDATED (td.en.tmp) ****
Finished Guess after   1.9 sec
Maximum memory used throughout the entire GUESS-calculation: 22.3 MB


           ************************************************************
           *        Program running with 4 parallel MPI-processes     *
           *              working on a common directory               *
           ************************************************************

-------------------------------------------------------------------------------------------
                                      ORCA LEAN-SCF
                              memory conserving SCF solver
-------------------------------------------------------------------------------------------

----------------------------------------D-I-I-S--------------------------------------------
Iteration    Energy (Eh)           Delta-E    RMSDP     MaxDP     DIISErr   Damp  Time(sec)
-------------------------------------------------------------------------------------------
               ***  Starting incremental Fock matrix formation  ***
    1    -999.1219738332149518     0.00e+00  5.68e-03  1.76e-01  2.45e-01  0.700  11.6
    2    -999.3930630446936902    -2.71e-01  3.81e-03  1.19e-01  9.24e-02  0.700   5.8
                               ***Turning on AO-DIIS***
    3    -999.5007519397843225    -1.08e-01  1.59e-03  2.21e-02  3.61e-02  0.700   5.7
    4    -999.5661575196493231    -6.54e-02  2.92e-03  3.96e-02  1.73e-02  0.000   5.2
    5    -999.7081008213101541    -1.42e-01  4.80e-04  1.44e-02  7.38e-03  0.000   5.6
                              *** Initializing SOSCF ***
---------------------------------------S-O-S-C-F--------------------------------------
Iteration    Energy (Eh)           Delta-E    RMSDP     MaxDP     MaxGrad    Time(sec)
--------------------------------------------------------------------------------------
    6    -999.7090720575313298    -9.71e-04  1.75e-04  6.93e-03  1.35e-03     4.9
               *** Restarting incremental Fock matrix formation ***
    7    -999.7088937562523370     1.78e-04  1.19e-04  5.11e-03  2.85e-04    11.9
    8    -999.7088913578620577     2.40e-06  4.45e-05  9.49e-04  5.77e-04     7.9
    9    -999.7089009909175275    -9.63e-06  2.97e-05  1.19e-03  1.34e-04     6.8
   10    -999.7089008526447742     1.38e-07  1.39e-05  4.57e-04  9.18e-05     6.4
   11    -999.7089017105975017    -8.58e-07  4.09e-06  1.24e-04  1.31e-05     5.8
   12    -999.7089016992192683     1.14e-08  2.71e-06  6.83e-05  2.50e-05     4.9
   13    -999.7089017273676745    -2.81e-08  1.11e-06  3.33e-05  2.68e-06     4.5
   14    -999.7089017273817717    -1.41e-11  6.16e-07  1.57e-05  4.25e-06     4.0
                 **** Energy Check signals convergence ****

               *****************************************************
               *                     SUCCESS                       *
               *           SCF CONVERGED AFTER  14 CYCLES          *
               *****************************************************

Recomputing exchange energy using gridx3       ... done (   19.285 sec)
Old exchange energy                            :    -27.232553737 Eh
New exchange energy                            :    -27.232665736 Eh
Exchange energy change after final integration :     -0.000111999 Eh
Total energy after final integration           :   -999.709013736 Eh
             **** ENERGY FILE WAS UPDATED (td.en.tmp) ****

----------------
TOTAL SCF ENERGY
----------------

Total Energy       :       -999.70901373563265 Eh          -27203.46526 eV

Components:
Nuclear Repulsion  :       1767.71841283759045 Eh           48102.06347 eV
Electronic Energy  :      -2767.42731457407444 Eh          -75305.52569 eV
One Electron Energy:      -4868.27582688666553 Eh         -132472.52002 eV
Two Electron Energy:       2100.84851231259108 Eh           57166.99433 eV

Virial components:
Potential Energy   :      -1990.14141054164338 Eh          -54154.50094 eV
Kinetic Energy     :        990.43239680601062 Eh           26951.03568 eV
Virial Ratio       :          2.00936622929494

DFT components:
N(Alpha)           :       83.000003082182 electrons
N(Beta)            :       83.000003082182 electrons
N(Total)           :      166.000006164364 electrons
E(X)               :     -108.132350157789 Eh       
E(C)               :       -6.599388146447 Eh       
E(XC)              :     -114.731738304236 Eh       

---------------
SCF CONVERGENCE
---------------

  Last Energy change         ...    1.4097e-11  Tolerance :   1.0000e-08
  Last MAX-Density change    ...    1.5659e-05  Tolerance :   1.0000e-07
  Last RMS-Density change    ...    6.1556e-07  Tolerance :   5.0000e-09
  Last DIIS Error            ...    1.3493e-03  Tolerance :   5.0000e-07
  Last Orbital Gradient      ...    4.2458e-06  Tolerance :   1.0000e-05
  Last Orbital Rotation      ...    5.7639e-06  Tolerance :   1.0000e-05


----------------
ORBITAL ENERGIES
----------------

  NO   OCC          E(Eh)            E(eV) 
   0   2.0000     -19.177482      -521.8458 
   1   2.0000     -19.118435      -520.2391 
   2   2.0000     -19.109284      -519.9901 
   3   2.0000     -10.272068      -279.5172 
   4   2.0000     -10.262135      -279.2469 
   5   2.0000     -10.261564      -279.2313 
   6   2.0000     -10.253114      -279.0014 
   7   2.0000     -10.202869      -277.6342 
   8   2.0000     -10.197972      -277.5009 
   9   2.0000     -10.197204      -277.4800 
  10   2.0000     -10.195317      -277.4287 
  11   2.0000     -10.192311      -277.3469 
  12   2.0000     -10.191747      -277.3315 
  13   2.0000     -10.190532      -277.2985 
  14   2.0000     -10.190393      -277.2947 
  15   2.0000     -10.188680      -277.2481 
  16   2.0000     -10.181541      -277.0538 
  17   2.0000     -10.181107      -277.0420 
  18   2.0000     -10.180791      -277.0334 
  19   2.0000     -10.179577      -277.0004 
  20   2.0000     -10.172865      -276.8177 
  21   2.0000     -10.172559      -276.8094 
  22   2.0000     -10.172056      -276.7957 
  23   2.0000      -1.073693       -29.2167 
  24   2.0000      -1.028188       -27.9784 
  25   2.0000      -1.013916       -27.5901 
  26   2.0000      -0.863789       -23.5049 
  27   2.0000      -0.859929       -23.3999 
  28   2.0000      -0.815043       -22.1785 
  29   2.0000      -0.782301       -21.2875 
  30   2.0000      -0.764635       -20.8068 
  31   2.0000      -0.754149       -20.5214 
  32   2.0000      -0.739968       -20.1356 
  33   2.0000      -0.731125       -19.8949 
  34   2.0000      -0.708395       -19.2764 
  35   2.0000      -0.681463       -18.5436 
  36   2.0000      -0.680542       -18.5185 
  37   2.0000      -0.638329       -17.3698 
  38   2.0000      -0.619232       -16.8502 
  39   2.0000      -0.616618       -16.7790 
  40   2.0000      -0.596900       -16.2425 
  41   2.0000      -0.567414       -15.4401 
  42   2.0000      -0.549762       -14.9598 
  43   2.0000      -0.547164       -14.8891 
  44   2.0000      -0.538275       -14.6472 
  45   2.0000      -0.507979       -13.8228 
  46   2.0000      -0.491304       -13.3691 
  47   2.0000      -0.485763       -13.2183 
  48   2.0000      -0.483948       -13.1689 
  49   2.0000      -0.471797       -12.8382 
  50   2.0000      -0.469981       -12.7888 
  51   2.0000      -0.458347       -12.4723 
  52   2.0000      -0.445122       -12.1124 
  53   2.0000      -0.443067       -12.0565 
  54   2.0000      -0.441252       -12.0071 
  55   2.0000      -0.434972       -11.8362 
  56   2.0000      -0.430206       -11.7065 
  57   2.0000      -0.425201       -11.5703 
  58   2.0000      -0.423888       -11.5346 
  59   2.0000      -0.417336       -11.3563 
  60   2.0000      -0.409642       -11.1469 
  61   2.0000      -0.400344       -10.8939 
  62   2.0000      -0.398378       -10.8404 
  63   2.0000      -0.393940       -10.7196 
  64   2.0000      -0.385242       -10.4830 
  65   2.0000      -0.381258       -10.3746 
  66   2.0000      -0.377858       -10.2820 
  67   2.0000      -0.368963       -10.0400 
  68   2.0000      -0.367237        -9.9930 
  69   2.0000      -0.363133        -9.8814 
  70   2.0000      -0.350088        -9.5264 
  71   2.0000      -0.349621        -9.5137 
  72   2.0000      -0.337583        -9.1861 
  73   2.0000      -0.332408        -9.0453 
  74   2.0000      -0.329754        -8.9731 
  75   2.0000      -0.326692        -8.8898 
  76   2.0000      -0.317346        -8.6354 
  77   2.0000      -0.271753        -7.3948 
  78   2.0000      -0.258813        -7.0427 
  79   2.0000      -0.253866        -6.9080 
  80   2.0000      -0.245224        -6.6729 
  81   2.0000      -0.239098        -6.5062 
  82   2.0000      -0.236817        -6.4441 
  83   0.0000      -0.055842        -1.5195 
  84   0.0000      -0.049418        -1.3447 
  85   0.0000      -0.017407        -0.4737 
  86   0.0000      -0.003080        -0.0838 
  87   0.0000       0.039101         1.0640 
  88   0.0000       0.047903         1.3035 
  89   0.0000       0.054587         1.4854 
  90   0.0000       0.056819         1.5461 
  91   0.0000       0.067725         1.8429 
  92   0.0000       0.084109         2.2887 
  93   0.0000       0.090642         2.4665 
*Only the first 10 virtual orbitals were printed.

                    ********************************
                    * MULLIKEN POPULATION ANALYSIS *
                    ********************************

-----------------------
MULLIKEN ATOMIC CHARGES
-----------------------
   0 C :    0.121789
   1 C :   -0.282077
   2 C :    0.103487
   3 C :    0.105568
   4 C :    0.122630
   5 C :   -0.027782
   6 C :   -0.001581
   7 C :    0.048176
   8 C :    0.038007
   9 C :   -0.025856
  10 C :    0.062706
  11 O :   -0.196194
  12 C :    0.085658
  13 C :    0.002848
  14 O :   -0.197792
  15 C :    0.047902
  16 C :    0.006556
  17 C :   -0.073944
  18 C :    0.246073
  19 O :   -0.305093
  20 C :    0.192235
  21 C :   -0.002194
  22 C :    0.003379
  23 H :    0.001554
  24 H :   -0.003953
  25 H :    0.004566
  26 H :   -0.001040
  27 H :    0.007760
  28 H :   -0.003911
  29 H :    0.003634
  30 H :   -0.003556
  31 H :   -0.001463
  32 H :   -0.032273
  33 H :   -0.018433
  34 H :   -0.040750
  35 H :   -0.043095
  36 H :    0.032726
  37 H :    0.030754
  38 H :   -0.009498
  39 H :   -0.033426
  40 H :    0.035671
  41 H :    0.023541
  42 H :    0.024486
  43 H :   -0.026650
  44 H :   -0.021140
Sum of atomic charges:    0.0000000

--------------------------------
MULLIKEN REDUCED ORBITAL CHARGES
--------------------------------
  0 C s       :     2.921950  s :     2.921950
      pz      :     0.972945  p :     2.927241
      px      :     0.975313
      py      :     0.978982
      dz2     :     0.006265  d :     0.029021
      dxz     :     0.007331
      dyz     :     0.004830
      dx2y2   :     0.007711
      dxy     :     0.002883

  1 C s       :     3.201846  s :     3.201846
      pz      :     1.015284  p :     3.027933
      px      :     0.992262
      py      :     1.020387
      dz2     :     0.010524  d :     0.052299
      dxz     :     0.011015
      dyz     :     0.010003
      dx2y2   :     0.012101
      dxy     :     0.008656

  2 C s       :     2.955502  s :     2.955502
      pz      :     0.990658  p :     2.911828
      px      :     0.977700
      py      :     0.943469
      dz2     :     0.004666  d :     0.029184
      dxz     :     0.005796
      dyz     :     0.006722
      dx2y2   :     0.006927
      dxy     :     0.005073

  3 C s       :     2.954041  s :     2.954041
      pz      :     0.973693  p :     2.911173
      px      :     0.959199
      py      :     0.978280
      dz2     :     0.007097  d :     0.029219
      dxz     :     0.005666
      dyz     :     0.004356
      dx2y2   :     0.008783
      dxy     :     0.003316

  4 C s       :     3.062998  s :     3.062998
      pz      :     0.924434  p :     2.771575
      px      :     0.921799
      py      :     0.925342
      dz2     :     0.010189  d :     0.042797
      dxz     :     0.011710
      dyz     :     0.006306
      dx2y2   :     0.007326
      dxy     :     0.007267

  5 C s       :     3.237917  s :     3.237917
      pz      :     0.932815  p :     2.754433
      px      :     0.859867
      py      :     0.961751
      dz2     :     0.008522  d :     0.035432
      dxz     :     0.010974
      dyz     :     0.005414
      dx2y2   :     0.004770
      dxy     :     0.005752

  6 C s       :     3.262743  s :     3.262743
      pz      :     0.828664  p :     2.702981
      px      :     0.953078
      py      :     0.921239
      dz2     :     0.007838  d :     0.035857
      dxz     :     0.009798
      dyz     :     0.004034
      dx2y2   :     0.006726
      dxy     :     0.007461

  7 C s       :     3.088152  s :     3.088152
      pz      :     0.908153  p :     2.824105
      px      :     0.929387
      py      :     0.986565
      dz2     :     0.009154  d :     0.039568
      dxz     :     0.012031
      dyz     :     0.006263
      dx2y2   :     0.006828
      dxy     :     0.005291

  8 C s       :     3.205706  s :     3.205706
      pz      :     0.940258  p :     2.720102
      px      :     0.851862
      py      :     0.927982
      dz2     :     0.008804  d :     0.036185
      dxz     :     0.010844
      dyz     :     0.005877
      dx2y2   :     0.004566
      dxy     :     0.006094

  9 C s       :     3.236607  s :     3.236607
      pz      :     0.826037  p :     2.754027
      px      :     0.947297
      py      :     0.980693
      dz2     :     0.008145  d :     0.035222
      dxz     :     0.009337
      dyz     :     0.004224
      dx2y2   :     0.006739
      dxy     :     0.006777

 10 C s       :     3.128607  s :     3.128607
      pz      :     0.907515  p :     2.714482
      px      :     0.970242
      py      :     0.836724
      dz2     :     0.021699  d :     0.094205
      dxz     :     0.033679
      dyz     :     0.017814
      dx2y2   :     0.009205
      dxy     :     0.011807

 11 O s       :     3.730959  s :     3.730959
      pz      :     1.336721  p :     4.447593
      px      :     1.751940
      py      :     1.358931
      dz2     :     0.006792  d :     0.017642
      dxz     :     0.003359
      dyz     :     0.005599
      dx2y2   :     0.001036
      dxy     :     0.000857

 12 C s       :     2.868453  s :     2.868453
      pz      :     0.989479  p :     3.016135
      px      :     0.990377
      py      :     1.036279
      dz2     :     0.003611  d :     0.029754
      dxz     :     0.008640
      dyz     :     0.006648
      dx2y2   :     0.005434
      dxy     :     0.005422

 13 C s       :     3.144917  s :     3.144917
      pz      :     0.897181  p :     2.756414
      px      :     0.943956
      py      :     0.915277
      dz2     :     0.015293  d :     0.095821
      dxz     :     0.013616
      dyz     :     0.019908
      dx2y2   :     0.024405
      dxy     :     0.022599

 14 O s       :     3.742475  s :     3.742475
      pz      :     1.484799  p :     4.437402
      px      :     1.615346
      py      :     1.337257
      dz2     :     0.002590  d :     0.017915
      dxz     :     0.002375
      dyz     :     0.004014
      dx2y2   :     0.004429
      dxy     :     0.004508

 15 C s       :     3.071590  s :     3.071590
      pz      :     0.998788  p :     2.841467
      px      :     0.928827
      py      :     0.913853
      dz2     :     0.005409  d :     0.039041
      dxz     :     0.006220
      dyz     :     0.006887
      dx2y2   :     0.010781
      dxy     :     0.009744

 16 C s       :     3.265273  s :     3.265273
      pz      :     0.924658  p :     2.691739
      px      :     0.888990
      py      :     0.878091
      dz2     :     0.005746  d :     0.036433
      dxz     :     0.007320
      dyz     :     0.004593
      dx2y2   :     0.008798
      dxy     :     0.009976

 17 C s       :     3.243624  s :     3.243624
      pz      :     0.971781  p :     2.796805
      px      :     0.919662
      py      :     0.905361
      dz2     :     0.003533  d :     0.033516
      dxz     :     0.006444
      dyz     :     0.005099
      dx2y2   :     0.008324
      dxy     :     0.010116

 18 C s       :     2.938097  s :     2.938097
      pz      :     0.948790  p :     2.739419
      px      :     0.812954
      py      :     0.977675
      dz2     :     0.010075  d :     0.076412
      dxz     :     0.016163
      dyz     :     0.009244
      dx2y2   :     0.021182
      dxy     :     0.019748

 19 O s       :     3.730164  s :     3.730164
      pz      :     1.625359  p :     4.557897
      px      :     1.305060
      py      :     1.627477
      dz2     :     0.002548  d :     0.017033
      dxz     :     0.002744
      dyz     :     0.003098
      dx2y2   :     0.003893
      dxy     :     0.004749

 20 C s       :     2.996086  s :     2.996086
      pz      :     0.919009  p :     2.758345
      px      :     0.926574
      py      :     0.912761
      dz2     :     0.011251  d :     0.053335
      dxz     :     0.010010
      dyz     :     0.011279
      dx2y2   :     0.009054
      dxy     :     0.011740

 21 C s       :     3.240046  s :     3.240046
      pz      :     0.992697  p :     2.729033
      px      :     0.878280
      py      :     0.858057
      dz2     :     0.004803  d :     0.033115
      dxz     :     0.006417
      dyz     :     0.004439
      dx2y2   :     0.007237
      dxy     :     0.010220

 22 C s       :     3.230580  s :     3.230580
      pz      :     0.915784  p :     2.729319
      px      :     0.897995
      py      :     0.915541
      dz2     :     0.003447  d :     0.036723
      dxz     :     0.007109
      dyz     :     0.006166
      dx2y2   :     0.009706
      dxy     :     0.010294

 23 H s       :     0.974535  s :     0.974535
      pz      :     0.004259  p :     0.023911
      px      :     0.005910
      py      :     0.013742

 24 H s       :     0.980210  s :     0.980210
      pz      :     0.005852  p :     0.023744
      px      :     0.012649
      py      :     0.005242

 25 H s       :     0.971518  s :     0.971518
      pz      :     0.007986  p :     0.023915
      px      :     0.009048
      py      :     0.006881

 26 H s       :     0.977018  s :     0.977018
      pz      :     0.012427  p :     0.024022
      px      :     0.005465
      py      :     0.006130

 27 H s       :     0.968548  s :     0.968548
      pz      :     0.007729  p :     0.023692
      px      :     0.009402
      py      :     0.006561

 28 H s       :     0.980063  s :     0.980063
      pz      :     0.007314  p :     0.023848
      px      :     0.012244
      py      :     0.004290

 29 H s       :     0.972692  s :     0.972692
      pz      :     0.005082  p :     0.023674
      px      :     0.005159
      py      :     0.013432

 30 H s       :     0.979707  s :     0.979707
      pz      :     0.006465  p :     0.023849
      px      :     0.012310
      py      :     0.005073

 31 H s       :     0.977458  s :     0.977458
      pz      :     0.012711  p :     0.024005
      px      :     0.004950
      py      :     0.006344

 32 H s       :     1.008591  s :     1.008591
      pz      :     0.006332  p :     0.023682
      px      :     0.010399
      py      :     0.006950

 33 H s       :     0.994577  s :     0.994577
      pz      :     0.013920  p :     0.023856
      px      :     0.004167
      py      :     0.005769

 34 H s       :     1.017137  s :     1.017137
      pz      :     0.006642  p :     0.023613
      px      :     0.010381
      py      :     0.006590

 35 H s       :     1.019162  s :     1.019162
      pz      :     0.013523  p :     0.023933
      px      :     0.004018
      py      :     0.006392

 36 H s       :     0.942944  s :     0.942944
      pz      :     0.006320  p :     0.024330
      px      :     0.005680
      py      :     0.012331

 37 H s       :     0.946315  s :     0.946315
      pz      :     0.010405  p :     0.022931
      px      :     0.007999
      py      :     0.004526

 38 H s       :     0.985541  s :     0.985541
      pz      :     0.004759  p :     0.023957
      px      :     0.006838
      py      :     0.012361

 39 H s       :     1.009468  s :     1.009468
      pz      :     0.008601  p :     0.023959
      px      :     0.006334
      py      :     0.009024

 40 H s       :     0.942487  s :     0.942487
      pz      :     0.004202  p :     0.021842
      px      :     0.011551
      py      :     0.006089

 41 H s       :     0.953639  s :     0.953639
      pz      :     0.012799  p :     0.022820
      px      :     0.005469
      py      :     0.004552

 42 H s       :     0.952678  s :     0.952678
      pz      :     0.006013  p :     0.022836
      px      :     0.004640
      py      :     0.012184

 43 H s       :     1.003047  s :     1.003047
      pz      :     0.005181  p :     0.023603
      px      :     0.006160
      py      :     0.012263

 44 H s       :     0.997512  s :     0.997512
      pz      :     0.008172  p :     0.023628
      px      :     0.006442
      py      :     0.009014



                     *******************************
                     * LOEWDIN POPULATION ANALYSIS *
                     *******************************

----------------------
LOEWDIN ATOMIC CHARGES
----------------------
   0 C :   -0.034392
   1 C :   -0.048276
   2 C :   -0.027039
   3 C :   -0.027156
   4 C :    0.012457
   5 C :   -0.023151
   6 C :    0.021076
   7 C :   -0.069373
   8 C :    0.006576
   9 C :   -0.031773
  10 C :    0.094439
  11 O :   -0.155427
  12 C :   -0.079149
  13 C :    0.086709
  14 O :   -0.154773
  15 C :   -0.092376
  16 C :    0.032765
  17 C :   -0.072887
  18 C :    0.066984
  19 O :   -0.089622
  20 C :    0.088303
  21 C :   -0.042573
  22 C :    0.001904
  23 H :    0.018702
  24 H :    0.020841
  25 H :    0.019974
  26 H :    0.017638
  27 H :    0.023259
  28 H :    0.018217
  29 H :    0.021606
  30 H :    0.018346
  31 H :    0.017575
  32 H :    0.021047
  33 H :    0.029706
  34 H :    0.022248
  35 H :    0.022874
  36 H :    0.042906
  37 H :    0.044346
  38 H :    0.033391
  39 H :    0.026276
  40 H :    0.028545
  41 H :    0.015522
  42 H :    0.015938
  43 H :    0.030493
  44 H :    0.027301

-------------------------------
LOEWDIN REDUCED ORBITAL CHARGES
-------------------------------
  0 C s       :     2.831607  s :     2.831607
      pz      :     1.019422  p :     3.128277
      px      :     1.059840
      py      :     1.049015
      dz2     :     0.016808  d :     0.074508
      dxz     :     0.017909
      dyz     :     0.012682
      dx2y2   :     0.019753
      dxy     :     0.007357

  1 C s       :     2.841016  s :     2.841016
      pz      :     1.029962  p :     3.087901
      px      :     1.023507
      py      :     1.034433
      dz2     :     0.024416  d :     0.119358
      dxz     :     0.026008
      dyz     :     0.021535
      dx2y2   :     0.028682
      dxy     :     0.018717

  2 C s       :     2.833651  s :     2.833651
      pz      :     1.058605  p :     3.118842
      px      :     1.054211
      py      :     1.006027
      dz2     :     0.012480  d :     0.074546
      dxz     :     0.014700
      dyz     :     0.016075
      dx2y2   :     0.018697
      dxy     :     0.012594

  3 C s       :     2.833789  s :     2.833789
      pz      :     1.041320  p :     3.118746
      px      :     1.029933
      py      :     1.047492
      dz2     :     0.017261  d :     0.074622
      dxz     :     0.015388
      dyz     :     0.011468
      dx2y2   :     0.021596
      dxy     :     0.008909

  4 C s       :     2.855167  s :     2.855167
      pz      :     1.043239  p :     3.023157
      px      :     1.033346
      py      :     0.946572
      dz2     :     0.026809  d :     0.109218
      dxz     :     0.031868
      dyz     :     0.015883
      dx2y2   :     0.017941
      dxy     :     0.016717

  5 C s       :     2.848689  s :     2.848689
      pz      :     1.041501  p :     3.080518
      px      :     1.045982
      py      :     0.993035
      dz2     :     0.023295  d :     0.093943
      dxz     :     0.031328
      dyz     :     0.013237
      dx2y2   :     0.012498
      dxy     :     0.013585

  6 C s       :     2.853741  s :     2.853741
      pz      :     1.031996  p :     3.031737
      px      :     1.050312
      py      :     0.949429
      dz2     :     0.020624  d :     0.093446
      dxz     :     0.027084
      dyz     :     0.009362
      dx2y2   :     0.018013
      dxy     :     0.018363

  7 C s       :     2.853927  s :     2.853927
      pz      :     1.053409  p :     3.107498
      px      :     1.041727
      py      :     1.012362
      dz2     :     0.025412  d :     0.107948
      dxz     :     0.034610
      dyz     :     0.016044
      dx2y2   :     0.018073
      dxy     :     0.013810

  8 C s       :     2.852072  s :     2.852072
      pz      :     1.038512  p :     3.046740
      px      :     1.044116
      py      :     0.964112
      dz2     :     0.023403  d :     0.094612
      dxz     :     0.030798
      dyz     :     0.014343
      dx2y2   :     0.011924
      dxy     :     0.014145

  9 C s       :     2.848657  s :     2.848657
      pz      :     1.031461  p :     3.089656
      px      :     1.054158
      py      :     1.004036
      dz2     :     0.021549  d :     0.093460
      dxz     :     0.026735
      dyz     :     0.009865
      dx2y2   :     0.018364
      dxy     :     0.016947

 10 C s       :     2.869078  s :     2.869078
      pz      :     0.973479  p :     2.820057
      px      :     1.011559
      py      :     0.835019
      dz2     :     0.048701  d :     0.216426
      dxz     :     0.081199
      dyz     :     0.039618
      dx2y2   :     0.020721
      dxy     :     0.026186

 11 O s       :     3.548922  s :     3.548922
      pz      :     1.438363  p :     4.576230
      px      :     1.753142
      py      :     1.384726
      dz2     :     0.011924  d :     0.030276
      dxz     :     0.005595
      dyz     :     0.009958
      dx2y2   :     0.001455
      dxy     :     0.001344

 12 C s       :     2.849290  s :     2.849290
      pz      :     1.052880  p :     3.149280
      px      :     1.042522
      py      :     1.053877
      dz2     :     0.008724  d :     0.080579
      dxz     :     0.024193
      dyz     :     0.018666
      dx2y2   :     0.013816
      dxy     :     0.015180

 13 C s       :     2.868208  s :     2.868208
      pz      :     0.896642  p :     2.825920
      px      :     0.996670
      py      :     0.932607
      dz2     :     0.032522  d :     0.219162
      dxz     :     0.029221
      dyz     :     0.047018
      dx2y2   :     0.055034
      dxy     :     0.055367

 14 O s       :     3.547742  s :     3.547742
      pz      :     1.509324  p :     4.576212
      px      :     1.643699
      py      :     1.423190
      dz2     :     0.003853  d :     0.030819
      dxz     :     0.003658
      dyz     :     0.007654
      dx2y2   :     0.006689
      dxy     :     0.008964

 15 C s       :     2.852241  s :     2.852241
      pz      :     1.036444  p :     3.133072
      px      :     1.036696
      py      :     1.059932
      dz2     :     0.012891  d :     0.107062
      dxz     :     0.016805
      dyz     :     0.018471
      dx2y2   :     0.030253
      dxy     :     0.028642

 16 C s       :     2.853061  s :     2.853061
      pz      :     0.955426  p :     3.019624
      px      :     1.035691
      py      :     1.028507
      dz2     :     0.013081  d :     0.094549
      dxz     :     0.019237
      dyz     :     0.011485
      dx2y2   :     0.023931
      dxy     :     0.026815

 17 C s       :     2.850597  s :     2.850597
      pz      :     1.037629  p :     3.131680
      px      :     1.058340
      py      :     1.035711
      dz2     :     0.008368  d :     0.090610
      dxz     :     0.016154
      dyz     :     0.013008
      dx2y2   :     0.023848
      dxy     :     0.029232

 18 C s       :     2.836150  s :     2.836150
      pz      :     0.970199  p :     2.919636
      px      :     0.888422
      py      :     1.061015
      dz2     :     0.021810  d :     0.177229
      dxz     :     0.035180
      dyz     :     0.021827
      dx2y2   :     0.048936
      dxy     :     0.049476

 19 O s       :     3.431037  s :     3.431037
      pz      :     1.627824  p :     4.626673
      px      :     1.356780
      py      :     1.642069
      dz2     :     0.004358  d :     0.031912
      dxz     :     0.005960
      dyz     :     0.004848
      dx2y2   :     0.007653
      dxy     :     0.009093

 20 C s       :     2.840866  s :     2.840866
      pz      :     0.985027  p :     2.948932
      px      :     0.979065
      py      :     0.984840
      dz2     :     0.027010  d :     0.121899
      dxz     :     0.021274
      dyz     :     0.025952
      dx2y2   :     0.021050
      dxy     :     0.026612

 21 C s       :     2.853848  s :     2.853848
      pz      :     1.020008  p :     3.099671
      px      :     1.050317
      py      :     1.029347
      dz2     :     0.010982  d :     0.089053
      dxz     :     0.017438
      dyz     :     0.011602
      dx2y2   :     0.020973
      dxy     :     0.028059

 22 C s       :     2.851134  s :     2.851134
      pz      :     0.976440  p :     3.051406
      px      :     1.045011
      py      :     1.029955
      dz2     :     0.008035  d :     0.095555
      dxz     :     0.017436
      dyz     :     0.014987
      dx2y2   :     0.026326
      dxy     :     0.028772

 23 H s       :     0.914306  s :     0.914306
      pz      :     0.013299  p :     0.066991
      px      :     0.014126
      py      :     0.039566

 24 H s       :     0.912771  s :     0.912771
      pz      :     0.017720  p :     0.066388
      px      :     0.035628
      py      :     0.013040

 25 H s       :     0.912997  s :     0.912997
      pz      :     0.023999  p :     0.067029
      px      :     0.024384
      py      :     0.018647

 26 H s       :     0.915157  s :     0.915157
      pz      :     0.035203  p :     0.067205
      px      :     0.012991
      py      :     0.019011

 27 H s       :     0.910280  s :     0.910280
      pz      :     0.020492  p :     0.066461
      px      :     0.025659
      py      :     0.020311

 28 H s       :     0.915275  s :     0.915275
      pz      :     0.018647  p :     0.066509
      px      :     0.034385
      py      :     0.013477

 29 H s       :     0.912005  s :     0.912005
      pz      :     0.013107  p :     0.066389
      px      :     0.014367
      py      :     0.038914

 30 H s       :     0.915132  s :     0.915132
      pz      :     0.017696  p :     0.066522
      px      :     0.035941
      py      :     0.012885

 31 H s       :     0.915231  s :     0.915231
      pz      :     0.036699  p :     0.067194
      px      :     0.013259
      py      :     0.017236

 32 H s       :     0.908859  s :     0.908859
      pz      :     0.019429  p :     0.070094
      px      :     0.030046
      py      :     0.020619

 33 H s       :     0.898271  s :     0.898271
      pz      :     0.040787  p :     0.072023
      px      :     0.013665
      py      :     0.017571

 34 H s       :     0.907683  s :     0.907683
      pz      :     0.020156  p :     0.070069
      px      :     0.030332
      py      :     0.019581

 35 H s       :     0.905968  s :     0.905968
      pz      :     0.039150  p :     0.071158
      px      :     0.012559
      py      :     0.019449

 36 H s       :     0.885038  s :     0.885038
      pz      :     0.019621  p :     0.072056
      px      :     0.016382
      py      :     0.036053

 37 H s       :     0.885790  s :     0.885790
      pz      :     0.029208  p :     0.069863
      px      :     0.026743
      py      :     0.013913

 38 H s       :     0.894711  s :     0.894711
      pz      :     0.014662  p :     0.071898
      px      :     0.020782
      py      :     0.036454

 39 H s       :     0.901555  s :     0.901555
      pz      :     0.025811  p :     0.072169
      px      :     0.019410
      py      :     0.026948

 40 H s       :     0.907785  s :     0.907785
      pz      :     0.011301  p :     0.063670
      px      :     0.034720
[...]
    77a ->  83a  :     0.186778 (c=  0.43217828)
    77a ->  84a  :     0.064654 (c=  0.25427085)
    77a ->  87a  :     0.046894 (c= -0.21655069)
    77a ->  88a  :     0.023386 (c= -0.15292426)
    78a ->  85a  :     0.046146 (c=  0.21481668)
    79a ->  85a  :     0.261273 (c=  0.51114856)
    81a ->  85a  :     0.034862 (c=  0.18671386)
    82a ->  85a  :     0.288429 (c= -0.53705572)

Storing amplitudes in GBW file ... 
... GBW file created

-----------------------------
TD-DFT/TDA-EXCITATION SPECTRA
-----------------------------

Center of mass = (  1.0863,  0.0054,  0.4257)
Generating CIS transition densities           ... done

----------------------------------------------------------------------------------------------------
                     ABSORPTION SPECTRUM VIA TRANSITION ELECTRIC DIPOLE MOMENTS    
----------------------------------------------------------------------------------------------------
     Transition      Energy     Energy  Wavelength fosc(D2)      D2        DX        DY        DZ   
                      (eV)      (cm-1)    (nm)                 (au**2)    (au)      (au)      (au)  
----------------------------------------------------------------------------------------------------
  0-1A  ->  1-1A    3.735017   30124.9   332.0   0.000546469   0.00597  -0.05474   0.01097  -0.05344
  0-1A  ->  2-1A    3.838166   30956.9   323.0   0.003094947   0.03291   0.17653  -0.01401  -0.03943
  0-1A  ->  3-1A    4.466000   36020.7   277.6   0.024275737   0.22187   0.45727  -0.00055  -0.11302
  0-1A  ->  4-1A    4.565857   36826.1   271.5   0.034981884   0.31273   0.54943  -0.07097  -0.07624
  0-1A  ->  5-1A    4.646615   37477.5   266.8   0.019004987   0.16694   0.40714  -0.03225  -0.01190
  0-1A  ->  6-1A    4.697577   37888.5   263.9   0.030507428   0.26508   0.29729  -0.10889  -0.40601
  0-1A  ->  7-1A    4.820059   38876.4   257.2   0.001716405   0.01453   0.02803  -0.10119  -0.05925
  0-1A  ->  8-1A    4.911882   39617.0   252.4   0.189798072   1.57720   1.22237  -0.16637  -0.23523
  0-1A  ->  9-1A    4.938952   39835.3   251.0   0.007567092   0.06254  -0.24740  -0.03103   0.01912
  0-1A  -> 10-1A    4.964147   40038.6   249.8   0.481396900   3.95823  -1.93245   0.24297   0.40600
  0-1A  -> 11-1A    5.283224   42612.1   234.7   0.347832161   2.68728  -1.36250   0.01700  -0.91137
  0-1A  -> 12-1A    5.369965   43311.7   230.9   0.001214699   0.00923  -0.06685   0.04257   0.05433
  0-1A  -> 13-1A    5.552147   44781.1   223.3   0.001030913   0.00758  -0.04179  -0.06872   0.03332
  0-1A  -> 14-1A    5.635256   45451.4   220.0   0.002862166   0.02073   0.13427  -0.05194   0.00247
  0-1A  -> 15-1A    5.717282   46113.0   216.9   0.000525994   0.00376  -0.02092   0.03267   0.04744
  0-1A  -> 16-1A    5.868237   47330.5   211.3   0.002691406   0.01872  -0.09836   0.09499   0.00471
  0-1A  -> 17-1A    5.948918   47981.3   208.4   0.001153798   0.00792   0.08731   0.01249   0.01171
  0-1A  -> 18-1A    6.039624   48712.9   205.3   0.107783350   0.72842  -0.18084   0.76949  -0.32188

----------------------------------------------------------------------------------------------------
                     ABSORPTION SPECTRUM VIA TRANSITION VELOCITY DIPOLE MOMENTS    
----------------------------------------------------------------------------------------------------
     Transition      Energy     Energy  Wavelength fosc(P2)      P2        PX        PY        PZ   
                      (eV)      (cm-1)    (nm)                 (au**2)    (au)      (au)      (au)  
----------------------------------------------------------------------------------------------------
  0-1A  ->  1-1A    3.735017   30124.9   332.0   0.000492097   0.00010  -0.00062  -0.00858   0.00522
  0-1A  ->  2-1A    3.838166   30956.9   323.0   0.001564878   0.00033  -0.01582   0.00300   0.00848
  0-1A  ->  3-1A    4.466000   36020.7   277.6   0.014848808   0.00366  -0.06041   0.00249   0.00026
  0-1A  ->  4-1A    4.565857   36826.1   271.5   0.011122093   0.00280  -0.05076  -0.00403   0.01437
  0-1A  ->  5-1A    4.646615   37477.5   266.8   0.009138636   0.00234  -0.04809   0.00519  -0.00129
  0-1A  ->  6-1A    4.697577   37888.5   263.9   0.003661418   0.00095  -0.02695  -0.01359  -0.00611
  0-1A  ->  7-1A    4.820059   38876.4   257.2   0.003084381   0.00082   0.02080  -0.00967  -0.01712
  0-1A  ->  8-1A    4.911882   39617.0   252.4   0.056660928   0.01534  -0.11141  -0.02350   0.04874
  0-1A  ->  9-1A    4.938952   39835.3   251.0   0.006380494   0.00174   0.03706   0.00199  -0.01896
  0-1A  -> 10-1A    4.964147   40038.6   249.8   0.157697411   0.04315   0.19361   0.02668  -0.07041
  0-1A  -> 11-1A    5.283224   42612.1   234.7   0.118127223   0.03440   0.18068  -0.04192   0.00063
  0-1A  -> 12-1A    5.369965   43311.7   230.9   0.000411795   0.00012   0.00436   0.00894  -0.00479
  0-1A  -> 13-1A    5.552147   44781.1   223.3   0.000356726   0.00011   0.00817  -0.00639   0.00128
  0-1A  -> 14-1A    5.635256   45451.4   220.0   0.000971878   0.00030  -0.01403   0.00093  -0.01021
  0-1A  -> 15-1A    5.717282   46113.0   216.9   0.000092665   0.00003  -0.00135   0.00272  -0.00447
  0-1A  -> 16-1A    5.868237   47330.5   211.3   0.000497878   0.00016   0.00708   0.00770  -0.00718
  0-1A  -> 17-1A    5.948918   47981.3   208.4   0.000498927   0.00016  -0.01279   0.00031  -0.00015
  0-1A  -> 18-1A    6.039624   48712.9   205.3   0.006882197   0.00229   0.00972   0.03938  -0.02542

------------------------------------------------------------------------------------------
                     CD SPECTRUM VIA TRANSITION ELECTRIC DIPOLE MOMENTS    
------------------------------------------------------------------------------------------
     Transition      Energy     Energy  Wavelength    R        MX        MY        MZ   
                      (eV)      (cm-1)    (nm)   (1e40*cgs)   (au)      (au)      (au)  
------------------------------------------------------------------------------------------
  0-1A  ->  1-1A    3.735017   30124.9   332.0   -7.03720  -0.01602  -0.17592  -0.29906
  0-1A  ->  2-1A    3.838166   30956.9   323.0   14.48702  -0.20788   0.16032  -0.20833
  0-1A  ->  3-1A    4.466000   36020.7   277.6   -2.71971   0.00475  -0.18679  -0.03090
  0-1A  ->  4-1A    4.565857   36826.1   271.5  -10.23416   0.03203  -0.05230  -0.00522
  0-1A  ->  5-1A    4.646615   37477.5   266.8   -8.10941   0.02925  -0.15367  -0.02819
  0-1A  ->  6-1A    4.697577   37888.5   263.9  -10.05917  -0.10953  -0.05057  -0.11919
  0-1A  ->  7-1A    4.820059   38876.4   257.2    6.23503   0.06726   0.13016   0.03275
  0-1A  ->  8-1A    4.911882   39617.0   252.4   13.50116  -0.11942  -0.30618  -0.28228
  0-1A  ->  9-1A    4.938952   39835.3   251.0    4.65189   0.03026   0.03236  -0.07204
  0-1A  -> 10-1A    4.964147   40038.6   249.8  -57.93268  -0.00036   0.28043   0.13312
  0-1A  -> 11-1A    5.283224   42612.1   234.7   46.80858   0.04554   0.27425   0.04598
  0-1A  -> 12-1A    5.369965   43311.7   230.9    1.23326   0.02300  -0.01209  -0.01037
  0-1A  -> 13-1A    5.552147   44781.1   223.3    0.78695   0.00849   0.00817  -0.02260
  0-1A  -> 14-1A    5.635256   45451.4   220.0    2.56608  -0.02264   0.04737   0.02300
  0-1A  -> 15-1A    5.717282   46113.0   216.9    0.30538   0.00155  -0.00737  -0.00789
  0-1A  -> 16-1A    5.868237   47330.5   211.3    0.98575   0.01483  -0.00642  -0.00457
  0-1A  -> 17-1A    5.948918   47981.3   208.4    0.95562  -0.02071  -0.01305  -0.00477
  0-1A  -> 18-1A    6.039624   48712.9   205.3   -0.32943   0.00352   0.03626   0.08253

------------------------------------------------------------------------------------------
                     CD SPECTRUM VIA TRANSITION VELOCITY DIPOLE MOMENTS    
------------------------------------------------------------------------------------------
     Transition      Energy     Energy  Wavelength    R        MX        MY        MZ   
                      (eV)      (cm-1)    (nm)   (1e40*cgs)   (au)      (au)      (au)  
------------------------------------------------------------------------------------------
  0-1A  ->  1-1A    3.735017   30124.9   332.0   -0.14630  -0.01602  -0.17592  -0.29906
  0-1A  ->  2-1A    3.838166   30956.9   323.0    6.69629  -0.20788   0.16032  -0.20833
  0-1A  ->  3-1A    4.466000   36020.7   277.6   -2.18547   0.00475  -0.18679  -0.03090
  0-1A  ->  4-1A    4.565857   36826.1   271.5   -4.18672   0.03203  -0.05230  -0.00522
  0-1A  ->  5-1A    4.646615   37477.5   266.8   -5.98320   0.02925  -0.15367  -0.02819
  0-1A  ->  6-1A    4.697577   37888.5   263.9   11.92466  -0.10953  -0.05057  -0.11919
  0-1A  ->  7-1A    4.820059   38876.4   257.2   -1.11905   0.06726   0.13016   0.03275
  0-1A  ->  8-1A    4.911882   39617.0   252.4   17.60789  -0.11942  -0.30618  -0.28228
  0-1A  ->  9-1A    4.938952   39835.3   251.0    6.62825   0.03026   0.03236  -0.07204
  0-1A  -> 10-1A    4.964147   40038.6   249.8   -5.07002  -0.00036   0.28043   0.13312
  0-1A  -> 11-1A    5.283224   42612.1   234.7   -7.86573   0.04554   0.27425   0.04598
  0-1A  -> 12-1A    5.369965   43311.7   230.9    0.10003   0.02300  -0.01209  -0.01037
  0-1A  -> 13-1A    5.552147   44781.1   223.3   -0.02714   0.00849   0.00817  -0.02260
  0-1A  -> 14-1A    5.635256   45451.4   220.0    0.28815  -0.02264   0.04737   0.02300
  0-1A  -> 15-1A    5.717282   46113.0   216.9    0.02948   0.00155  -0.00737  -0.00789
  0-1A  -> 16-1A    5.868237   47330.5   211.3    0.19340   0.01483  -0.00642  -0.00457
  0-1A  -> 17-1A    5.948918   47981.3   208.4    0.56380  -0.02071  -0.01305  -0.00477
  0-1A  -> 18-1A    6.039624   48712.9   205.3   -1.35138   0.00352   0.03626   0.08253

Total run time:      309.359 sec

           *** ORCA-CIS/TD-DFT FINISHED WITHOUT ERROR ***
-----------------------
CIS/TD-DFT TOTAL ENERGY
-----------------------

    E(SCF)  =   -999.709013736 Eh
    DE(CIS) =      0.137259344 Eh (Root  1)
    ----------------------------- ---------
    E(tot)  =   -999.571754391 Eh


Maximum memory used throughout the entire CIS-calculation: 728.4 MB
=> NOW LEAVING ORCA_CIS

-------------------------   --------------------
FINAL SINGLE POINT ENERGY      -999.571754391135
-------------------------   --------------------



           ************************************************************
           *        Program running with 4 parallel MPI-processes     *
           *              working on a common directory               *
           ************************************************************

------------------------------------------------------------------------------
                              ORCA PROPERTY CALCULATIONS
------------------------------------------------------------------------------

GBWName                                 ... td.gbw
Number of atoms                         ...     45
Number of basis functions               ...    432
Max core memory                         ...   2500 MB

Electric properties:
Dipole moment                           ... YES
Quadrupole moment                       ...  NO
Static polarizability (Dipole/Dipole)   ...  NO
Static polarizability (Dipole/Quad.)    ...  NO
Static polarizability (Quad./Quad.)     ...  NO
Static polarizability (Velocity)        ...  NO
Static hyperpolarizability              ...  NO

Atomic electric properties:
Dipole moment                           ...  NO
Quadrupole moment                       ...  NO
Static polarizability                   ...  NO

Choice of electric origin               ... Center of mass
Position of electric origin             ...     1.086295     0.005369     0.425652

General magnetic properties:
Magnetizability                         ...  NO

EPR properties:
g-Tensor (aka g-matrix)                 ...  NO
Zero-Field splitting spin-orbit         ...  NO
Zero-field splitting spin-spin          ...  NO
Hyperfine couplings                     ...  NO (   0 nuclei)
Quadrupole couplings                    ...  NO (   0 nuclei)
Contact density                         ...  NO (   0 nuclei)

NMR properties:
Chemical shifts                         ...  NO (   0 nuclei)
Spin-rotation constants                 ...  NO (   0 nuclei)
Spin-spin couplings                     ...  NO (   0 nuclei,    0 pairs)

Choice of magnetic origin               ... GIAO
Position of magnetic origin             ...     0.000000     0.000000     0.000000

Properties with geometric perturbations:
SCF Hessian                             ...  NO
IR spectrum                             ...  NO
VCD spectrum                            ...  NO
X-ray spectroscopy properties:
SCF XES/XAS/RIXS spectra                ...  NO

SCF SOC stabilization energy            ...  NO
Diagonal Born-Oppenheimer correction    ...  NO

-------------
DIPOLE MOMENT
-------------

Method             : SCF
Type of density    : Electron Density
Multiplicity       :   1
Irrep              :   0
Energy             :  -999.7090137356326522 Eh
Basis              : AO
                                X                 Y                 Z
Electronic contribution:     24.752948895      -0.817597135      10.025431548
Nuclear contribution   :    -23.944062021       0.070052545     -11.381722668
                        -----------------------------------------
Total Dipole Moment    :      0.808886873      -0.747544589      -1.356291120
                        -----------------------------------------
Magnitude (a.u.)       :      1.747182443
Magnitude (Debye)      :      4.440984840



--------------------
Rotational spectrum 
--------------------
 
Rotational constants in cm-1:             0.023124             0.002838             0.002678 
Rotational constants in MHz :           693.237202            85.091746            80.286003 

Dipole components along the rotational axes: 
x,y,z [a.u.] :    -0.983063    -1.302231     0.624843 
x,y,z [Debye]:    -2.498747    -3.310008     1.588225 

 

Dipole moment calculation done in   0.0 sec 

Maximum memory used throughout the entire PROP-calculation: 23.2 MB

--------------------------------
SUGGESTED CITATIONS FOR THIS RUN
--------------------------------

Below you find a list of papers that are relevant to this ORCA run
We neither can nor want to force you to cite these papers, but we appreciate if you do
You receive ORCA, which is the product of decades of hard work by many enthusiastic individuals, for free
The only thing we kindly ask in return is that you cite our papers,
We deeply appreciate it, if you show your appreciation for ORCA by not just citing the generic ORCA reference.

Please note that relegating all ORCA citations to the supporting information does *not* help us.
SI sections are not indexed - citations you put there will not count into any citation statistics
But we need these citations in order to attract the funding resources that allow us to do what we are doing

Therefore, if you are a happy ORCA user, please consider citing a few of the papers listed below in the main body of your paper

In addition to the list printed below, the program has created the file td.bibtex that contains the list in bibtex format
You can import this file easily into all common literature databanks and citation aid programs

It goes without saying that in many instances, there are alternative algorithms to achieve similar
results as the ones you have gotten from ORCA. It is, of course, also the case that in some instances
ORCA just re-implements algorithms worked out by others. We are fully aware of that and we are also
fully appreciative of our colleagues work. Hence this citation list should not be read as indicating
that the listed papers, which are focused on our own work, are the only ones worth citing. It simply
meant to make it easier for users to cite ORCA specific papers. It is not a substitute for doing your
own literature research and citing the relevant literature in a scientifically appropriate manner.

List of essential papers. We consider these as the minimum necessary citations

  1. Neese, F.
     Software update: the ORCA program system, version 6.0
     WIRES Comput. Molec. Sci. 2025 15(1), e70019
     doi.org/10.1002/wcms.70019

List of papers to cite with high priority. The work reported in these papers was absolutely
necessary for this run to complete.
Our perspective: the developers of density functionals and basis sets usually get cited in chemistry papers
Good! But without the algorithms to do something with them, the functionals or basis sets would not do anything.
Hence, in our opinion, the algorithm design and method developments papers are equally worthy of getting cited

  1. Neese, F.; Olbrich, G.
     Efficient use of the resolution of the identity approximation in time-dependent density functional calculations with hybrid density functionals
     Chem. Phys. Lett. 2002 362 , 170-178
     doi.org/10.1016/s0009-2614(02)01053-9
  2. Neese, F.
     An improvement of the resolution of the identity approximation for the formation of the Coulomb matrix
     J. Comp. Chem. 2003 24(14), 1740-1747
     doi.org/10.1002/jcc.10318
  3. Neese, F.; Wennmohs, F.; Hansen, A.; Becker, U.
     Efficient, approximate and parallel Hartree-Fock and hybrid DFT calculations. A 'chain-of-spheres' algorithm for the Hartree-Fock exchange
     Chem. Phys. 2009 356(1-3), 98-109
     doi.org/10.1016/j.chemphys.2008.10.036
  4. Helmich-Paris, B.; de Souza, B.; Neese, F.; Izsák, R.
     An improved chain of spheres for exchange algorithm
     J. Chem. Phys. 2021 155(10), 104109
     doi.org/10.1063/5.0058766
  5. Neese, F.
     The SHARK Integral Generation and Digestion System
     J. Comp. Chem. 2022 44(3), 381
     doi.org/10.1002/jcc.26942

List of suggested additional citations. These are papers that are important in the 'surrounding' of 
of this run, or papers that preceded the highly important papers. If you like your results we are grateful for a citation.

  1. Izsak, R.; Neese, F.
     An overlap fitted chain of spheres exchange method
     J. Chem. Phys. 2011 135 , 144105
     doi.org/10.1063/1.3646921
  2. Izsak, R.; Hansen, A.; Neese, F.
     The resolution of identity and chain of spheres approximations for the LPNO-CCSD singles Fock term
     Molec. Phys. 2012 110 , 2413-2417
     doi.org/10.1080/00268976.2012.687466
  3. Neese, F.
     The ORCA program system
     WIRES Comput. Molec. Sci. 2012 2(1), 73-78
     doi.org/10.1002/wcms.81
  4. Izsak, R.; Neese, F.; Klopper, W.
     Robust fitting techniques in the chain of spheres approximation to the Fock exchange: The role of the complementary space
     J. Chem. Phys. 2013 139 , 
     doi.org/10.1063/1.4819264
  5. Neese, F.
     Software update: the ORCA program system, version 4.0
     WIRES Comput. Molec. Sci. 2018 8(1), 1-6
     doi.org/10.1002/wcms.1327
  6. Neese, F.; Wennmohs, F.; Becker, U.; Riplinger, C.
     The ORCA quantum chemistry program package
     J. Chem. Phys. 2020 152(22), 224108
     doi.org/10.1063/5.0004608
  7. Neese, F.
     Software update: The ORCA program system—Version 5.0
     WIRES Comput. Molec. Sci. 2022 12(1), e1606
     doi.org/10.1002/wcms.1606

List of optional additional citations

  1. Neese, F.
     Approximate second-order SCF convergence for spin unrestricted wavefunctions
     Chem. Phys. Lett. 2000 325(1-3), 93-98
     doi.org/10.1016/s0009-2614(00)00662-x

Timings for individual modules:

Sum of individual times          ...      431.956 sec (=   7.199 min)
Startup calculation              ...        4.875 sec (=   0.081 min)   1.1 %
SCF iterations                   ...      116.899 sec (=   1.948 min)  27.1 %
Property integrals               ...        0.379 sec (=   0.006 min)   0.1 %
Property calculations            ...        0.241 sec (=   0.004 min)   0.1 %
CIS module                       ...      309.562 sec (=   5.159 min)  71.7 %
                             ****ORCA TERMINATED NORMALLY****
TOTAL RUN TIME: 0 days 0 hours 7 minutes 12 seconds 534 msec
