
                                 *****************
                                 * O   R   C   A *
                                 *****************

                                            #,                                       
                                            ###                                      
                                            ####                                     
                                            #####                                    
                                            ######                                   
                                           ########,                                 
                                     ,,################,,,,,                         
                               ,,#################################,,                 
                          ,,##########################################,,             
                       ,#########################################, ''#####,          
                    ,#############################################,,   '####,        
                  ,##################################################,,,,####,       
                ,###########''''           ''''###############################       
              ,#####''   ,,,,##########,,,,          '''####'''          '####       
            ,##' ,,,,###########################,,,                        '##       
           ' ,,###''''                  '''############,,,                           
         ,,##''                                '''############,,,,        ,,,,,,###''
      ,#''                                            '''#######################'''  
     '                                                          ''''####''''         
             ,#######,   #######,   ,#######,      ##                                
            ,#'     '#,  ##    ##  ,#'     '#,    #''#        ,####,    ,#,          
            ##       ##  ##   ,#'  ##            #'  '#       #'       ,# #          
            ##       ##  #######   ##           ,######,      #####,      #          
            '#,     ,#'  ##    ##  '#,     ,#' ,#      #,     #,   #      #          
             '#######'   ##     ##  '#######'  #'      '#     '####' #    #          



                #########################################################
                #                        -***-                          #
                #          Department of theory and spectroscopy        #
                #                                                       #
                #                      Frank Neese                      #
                #                                                       #
                #     Directorship, Architecture, Infrastructure        #
                #                    SHARK, DRIVERS                     #
                #        Core code/Algorithms in most modules           #
                #                                                       #
                #        Max Planck Institute fuer Kohlenforschung      #
                #                Kaiser Wilhelm Platz 1                 #
                #                 D-45470 Muelheim/Ruhr                 #
                #                      Germany                          #
                #                                                       #
                #                  All rights reserved                  #
                #                        -***-                          #
                #########################################################


                         Program Version 6.1.1  -  RELEASE   -


 With contributions from (in alphabetic order):
[Max-Planck-Institut fuer Kohlenforschung]                               
  Daniel Aravena         : Magnetic Suceptibility                        
  Michael Atanasov       : Ab Initio Ligand Field Theory (pilot matlab implementation)
  Alexander A. Auer      : GIAO ZORA, VPT2 properties, NMR spectrum      
  Ute Becker             : All parallelization in ORCA, NUMFREQ, NUMCALC 
  Giovanni Bistoni       : ED, misc. LED, open-shell LED, HFLD           
  Dmytro Bykov           : pre 5.0 version of the SCF Hessian            
  Marcos Casanova-Páez   : Triplet and SCS-CIS(D). UHF-(DLPNO)-IP/EA/STEOM-CCSD. UHF-CVS-IP/STEOM-CCSD   
  Vijay G. Chilkuri      : MRCI spin determinant printing, contributions to CSF-ICE 
  Pauline Colinet        : FMM embedding                                 
  Dipayan Datta          : RHF DLPNO-CCSD density                        
  Achintya Kumar Dutta   : EOM-CC, STEOM-CC                              
  Nicolas Foglia         : Exact transition moments, OPA infrastructure, MCD improvements    
  Dmitry Ganyushin       : Spin-Orbit,Spin-Spin,Magnetic field MRCI      
  Miquel Garcia-Rates    : C-PCM and meta-GGA Hessian, CCSD/C-PCM, Gaussian charge scheme 
  Tiago L. C. Gouveia    : GS-ROHF, GS-ROCIS                             
  Yang Guo               : DLPNO-NEVPT2, F12-NEVPT2, CIM, IAO-localization        
  Andreas Hansen         : Spin unrestricted coupled pair/coupled cluster methods 
  Ingolf Harden          : AUTO-CI MPn and infrastructure                
  Benjamin Helmich-Paris : MC-RPA, TRAH-(SCF,CASSCF), AVAS, COSX integrals, SCF dyn. polar., MC-PDFT, srDFT 
  Lee Huntington         : MR-EOM, pCC                                   
  Robert Izsak           : Overlap fitted RIJCOSX, COSX-SCS-MP3, EOM     
  Riya Kayal             : Wick's Theorem for AUTO-CI, AUTO-CI UHF-CCSDT 
  Emily Kempfer          : AUTO-CI RHF CISDT and CCSDT, approximate NEVPT4
  Christian Kollmar      : KDIIS, OOCD, Brueckner-CCSD(T), CCSD density, CASPT2, CASPT2-K, improved NEVPT2 
  Axel Koslowski         : Symmetry handling                             
  Simone Kossmann        : meta-GGA functionals, TD-DFT gradient, OOMP2, (MP2 Hessian; deprecated post 5.0) 
  Lucas Lang             : DCDCAS, Hyperfine gauge corrections, ICE-SOC+SSC
  Marvin Lechner         : AUTO-CI (C++ implementation), FIC-MRCC        
  Spencer Leger          : CASSCF response                               
  Dagmar Lenk            : GEPOL surface, SMD, ORCA-2-JSON               
  Dimitrios Liakos       : Extrapolation schemes; Compound Job, Property file
  Dimitrios Manganas     : Further ROCIS development; embedding schemes. LFT, Crystal Embedding 
  Dimitrios Pantazis     : SARC Basis sets                               
  Anastasios Papadopoulos: AUTO-CI, single reference methods and gradients 
  Taras Petrenko         : pre 6.0 DFT Hessian and TD-DFT gradient,  ECA, NRVS 
  Petra Pikulova         : Analytic Raman intensities                    
  Peter Pinski           : DLPNO-MP2, DLPNO-MP2 Gradient                 
  Shashank Vittal Rao    : ES-AILFT, MagRelax                            
  Christoph Reimann      : Effective Core Potentials                     
  Marius Retegan         : Local ZFS, SOC                                
  Christoph Riplinger    : Optimizer, TS searches, QM/MM, DLPNO-CCSD(T), (RO)-DLPNO pert. Triples 
  Michael Roemelt        : Original ROCIS implementation, recursive CI coupling coefficients
  Masaaki Saitow         : Open-shell DLPNO-CCSD energy and density      
  Barbara Sandhoefer     : DKH picture change effects                    
  Yorick L. A. Schmerwitz: GMF and freeze-and-release deltaSCF, NEB S-IDPP initial path                    
  Kantharuban Sivalingam : CASSCF convergence/infrastructure, NEVPT2, NEVPT3, NEVPT4(SD), FIC-MRCI and CEPA variants
  Bernardo de Souza      : ESD, SOC TD-DFT                               
  Georgi L. Stoychev     : AutoAux, RI-MP2 NMR, DLPNO-MP2 response, X2C  
  Van Anh Tran           : RI-MP2 g-tensors                              
  Willem Van den Heuvel  : Paramagnetic NMR                              
  Zikuan Wang            : NOTCH, Electric field optimization            
  Frank Wennmohs         : Technical directorship and infrastructure     
  Hang Xu                : AUTO-CI-Response properties                   
                                                                         
[FACCTs GmbH]                                                            
  Markus Bursch, Nicolas Foglia, Miquel Garcia-Rates, Ingolf Harden, Hagen Neugebauer, Anastasios Papadopoulos, 
  Christoph Riplinger, Bernardo de Souza, Georgi L. Stoychev                                                    
                                                                 
  APM, various basis sets, CI-OPT, improved COSX, DLPNO-Multilevel,           
  DOCKER, DRACO, updates on ESD, Fragmentator, GOAT, IRC, LR-CPCM, L-BFGS, MBIS, meta-GGA TD-DFT gradient, ML-optimized integration grids, 
  MM, NACMEs, nearIR, NEB, NEB-TS, NL-DFT gradient (VV10), 2- and 3-layer-ONIOM, interface openCOSMO-RS, QMMM,   
  Crystal-QMMM, RESP, rigid body optimization, SF, symmetry and pop. for TD-DFT, various functionals, SOLVATOR                                   
                                                                         
[Other institutions]                                                     
  V. Asgeirsson          : NEB                                           
  Christoph Bannwarth    : sTDA-DFT, sTD-DFT, PBEh-3c, B97-3c, D3        
  Giovanni Bistoni       : ETS/NOCV, ADLD/ADEX, COVALED                  
  Martin Brehm           : Molecular dynamics                            
  Ronald Cardenas        : ETS/NOCV                                      
  Martina Colucci        : COVALED                                       
  Sebastian Ehlert       : rSCAN, r2SCAN, r2SCAN-3c, D4, dhf basis sets  
  Marvin Friede          : D4 for Fr, Ra, Ac-Lr                          
  Lars Goerigk           : TD-DFT with DH, B97 family of functionals     
  Stefan Grimme          : VdW corrections, initial TS optimization, DFT functionals, gCP, sTDA/sTD-DF 
  Waldemar Hujo          : DFT-NL                                        
  H. Jonsson             : NEB                                           
  Holger Kruse           : gCP                                           
  Marcel Mueller         : wB97X-3c, vDZP basis set                      
  Hagen Neugebauer       : wr2SCAN, Native XTB                           
  Gianluca Regni         : ADLD/ADEX                                     
  Tobias Risthaus        : pre 6.0 range-separated hybrid DFT and stability analysis
  Lukas Wittmann         : regularized MP2, r2SCAN double-hybrids, wr2SCAN        
                                                                         
We gratefully acknowledge several colleagues who have allowed us to      
interface, adapt or use parts of their codes:                            
  Ed Valeev, F. Pavosevic, A. Kumar             : LibInt (2-el integral package), F12 methods 
  Garnet Chan, S. Sharma, J. Yang, R. Olivares  : DMRG                   
  Ulf Ekstrom                                   : XCFun DFT Library      
  Mihaly Kallay                                 : mrcc  (arbitrary order and MRCC methods)
  Frank Weinhold                                : gennbo (NPA and NBO analysis)           
  Simon Mueller                                 : openCOSMO-RS                            
  Christopher J. Cramer and Donald G. Truhlar   : smd solvation model                     
  S Lehtola, MJT Oliveira, MAL Marques          : LibXC Library                           
  Liviu Ungur et al                             : ANISO software                          


 Your calculation uses the libint2 library for the computation of 2-el integrals
 For citations please refer to: http://libint.valeyev.net

 Your ORCA version has been built with support for libXC version: 7.0.0
 For citations please refer to: https://libxc.gitlab.io

 This ORCA versions uses:
   CBLAS   interface :  Fast vector & matrix operations
   LAPACKE interface :  Fast linear algebra routines
   Shared memory     :  Shared parallel matrices


  ***********************************
  * Starting time: Tue Jul 21 20:21:03 2026
  * Host name:     DESKTOP-19Q153E
  * Process ID:    31328
  * Working dir.:  C:\Users\ysm04\Documents\etc\uv_vis\calculations\02_tddft_orca\diketo\diketo_c000\b3lyp_631+gd\ethanol\dftopt22
  ***********************************

NOTE: MaxCore=2500 MB was set to SCF,MP2,MDCI,CIPSI,MRCI,RASCI and CIS
      => If you want to overwrite this, your respective input block should be placed after the MaxCore statement
================================================================================

----- Orbital basis set information -----
Your calculation utilizes the basis: 6-31+G(d)
   H-He, Li-Ne : W. J. Hehre, R. Ditchfield and J.A. Pople, J. Chem. Phys. 56, 2257 (1972).
                 Note: He and Ne are unpublished basis sets taken from the Gaussian program.
                 Note: Li and B from J. D. Dill and J. A. Pople, J. Chem. Phys. 62, 2921 (1975).
   Na - Ar     : M. M. Francl, W. J. Pietro, W. J. Hehre, J. S. Binkley, M. S. Gordon, 
                 D. J. DeFrees and J. A. Pople, J. Chem. Phys. 77, 3654 (1982).
   K - Zn      : V. A. Rassolov, J. A. Pople, M. A. Ratner, and T. L. Windus, J. Chem. Phys. 109, 1223 (1998).
   Additional Pol./Diff. from the 6-311G equivalent.

----- AuxJ basis set information -----
Your calculation utilizes the auxiliary basis: def2/J
   H-Rn: F. Weigend, Phys. Chem. Chem. Phys. 8, 1057 (2006).
   Fr-Lr: K. Eichkorn, F. Weigend, O. Treutler, R. Ahlrichs; Theor. Chem. Acc. 97, 119 (1997).

================================================================================
                                        WARNINGS
                       Please study these warnings very carefully!
================================================================================


WARNING: CIS/ROCIS methods need fully converged wavefunctions
  ===> : Setting SCFConvForced true
         You can overwrite this default with %scf ConvForced false 


================================================================================
                                       INPUT FILE
================================================================================
NAME = td.inp
|  1> # diketo / diketo_c000 / b3lyp_631+gd / solvent=ethanol
|  2> ! B3LYP 6-31+G(d) RIJCOSX def2/J TightSCF CPCM(Ethanol)
|  3> %pal nprocs 4 end
|  4> %maxcore 2500
|  5> %scf
|  6>   MaxIter 300
|  7> end
|  8> %tddft
|  9>   nroots 22
| 10>   tda    true
| 11>   maxdim 5
| 12> end
| 13> * xyz 0 1
| 14> C     -5.4709956342     1.7597022103     0.4418989051
| 15> C     -4.8664773089     0.4913451308    -0.1878447721
| 16> C     -5.7705041695    -0.7110893324     0.1757865928
| 17> C     -4.8454730881     0.6722758927    -1.7246188114
| 18> C     -3.4354089581     0.2174585406     0.3100588498
| 19> C     -2.7281071581    -0.9065887830    -0.1630458037
| 20> C     -1.4354509394    -1.1972741243     0.2698852106
| 21> C     -0.7880196994    -0.3590885201     1.1981369335
| 22> C     -1.4817396235     0.7696408148     1.6694928640
| 23> C     -2.7770801470     1.0493825999     1.2366962844
| 24> C      0.5928257391    -0.6102065791     1.7060899258
| 25> O      1.1343245856     0.1701150436     2.4752346914
| 26> C      1.3378235909    -1.8745842932     1.2579328986
| 27> C      1.9572976155    -1.7790283732    -0.1453601734
| 28> O      1.3904063024    -2.3104624028    -1.0908331591
| 29> C      3.2375291275    -1.0470979578    -0.3245145515
| 30> C      3.8158819200    -1.0094048510    -1.6147045411
| 31> C      5.0101041286    -0.3480372455    -1.8445697989
| 32> C      5.6734506973     0.3091296857    -0.7837841045
| 33> O      6.8283245304     0.9245894010    -1.0990022437
| 34> C      7.5599401126     1.6145588329    -0.0923216434
| 35> C      5.1091432373     0.2866773004     0.5050739746
| 36> C      3.9073569454    -0.3892278917     0.7235115339
| 37> H     -5.5403651380     1.6808533615     1.5385361778
| 38> H     -4.8840930037     2.6596143528     0.1984592367
| 39> H     -6.4905916119     1.9124446070     0.0540685529
| 40> H     -5.4198305432    -1.6449109767    -0.2902760832
| 41> H     -6.8004263266    -0.5280173467    -0.1725183434
| 42> H     -5.8021645117    -0.8652560145     1.2667966147
| 43> H     -4.2110259918     1.5262024665    -2.0132539663
| 44> H     -4.4648740354    -0.2239851248    -2.2382960564
| 45> H     -5.8655535197     0.8646712744    -2.0960035150
| 46> H     -3.1948424217    -1.5777290437    -0.8875030938
| 47> H     -0.9230840956    -2.0694764533    -0.1388465157
| 48> H     -0.9868756500     1.4271985667     2.3874082024
| 49> H     -3.2758285752     1.9338653878     1.6336574080
| 50> H      2.1184149818    -2.0609215114     2.0065553395
| 51> H      0.6533607624    -2.7323197940     1.2401140420
| 52> H      3.3009752769    -1.5160974129    -2.4334821026
| 53> H      5.4616045161    -0.3188656008    -2.8390355606
| 54> H      8.4480255871     2.0284595094    -0.5870827703
| 55> H      6.9671467592     2.4373651349     0.3412406609
| 56> H      7.8764222639     0.9309161920     0.7132505205
| 57> H      5.5968919371     0.7895023807     1.3403217329
| 58> H      3.4815615337    -0.3762990740     1.7279518780
| 59> *
| 60> 
| 61>                          ****END OF INPUT****
================================================================================

                       ****************************
                       * Single Point Calculation *
                       ****************************

---------------------------------
CARTESIAN COORDINATES (ANGSTROEM)
---------------------------------
  C     -5.470996    1.759702    0.441899
  C     -4.866477    0.491345   -0.187845
  C     -5.770504   -0.711089    0.175787
  C     -4.845473    0.672276   -1.724619
  C     -3.435409    0.217459    0.310059
  C     -2.728107   -0.906589   -0.163046
  C     -1.435451   -1.197274    0.269885
  C     -0.788020   -0.359089    1.198137
  C     -1.481740    0.769641    1.669493
  C     -2.777080    1.049383    1.236696
  C      0.592826   -0.610207    1.706090
  O      1.134325    0.170115    2.475235
  C      1.337824   -1.874584    1.257933
  C      1.957298   -1.779028   -0.145360
  O      1.390406   -2.310462   -1.090833
  C      3.237529   -1.047098   -0.324515
  C      3.815882   -1.009405   -1.614705
  C      5.010104   -0.348037   -1.844570
  C      5.673451    0.309130   -0.783784
  O      6.828325    0.924589   -1.099002
  C      7.559940    1.614559   -0.092322
  C      5.109143    0.286677    0.505074
  C      3.907357   -0.389228    0.723512
  H     -5.540365    1.680853    1.538536
  H     -4.884093    2.659614    0.198459
  H     -6.490592    1.912445    0.054069
  H     -5.419831   -1.644911   -0.290276
  H     -6.800426   -0.528017   -0.172518
  H     -5.802165   -0.865256    1.266797
  H     -4.211026    1.526202   -2.013254
  H     -4.464874   -0.223985   -2.238296
  H     -5.865554    0.864671   -2.096004
  H     -3.194842   -1.577729   -0.887503
  H     -0.923084   -2.069476   -0.138847
  H     -0.986876    1.427199    2.387408
  H     -3.275829    1.933865    1.633657
  H      2.118415   -2.060922    2.006555
  H      0.653361   -2.732320    1.240114
  H      3.300975   -1.516097   -2.433482
  H      5.461605   -0.318866   -2.839036
  H      8.448026    2.028460   -0.587083
  H      6.967147    2.437365    0.341241
  H      7.876422    0.930916    0.713251
  H      5.596892    0.789502    1.340322
  H      3.481562   -0.376299    1.727952

----------------------------
CARTESIAN COORDINATES (A.U.)
----------------------------
  NO LB      ZA    FRAG     MASS         X           Y           Z
   0 C     6.0000    0    12.011  -10.338683    3.325355    0.835068
   1 C     6.0000    0    12.011   -9.196309    0.928508   -0.354975
   2 C     6.0000    0    12.011  -10.904673   -1.343764    0.332189
   3 C     6.0000    0    12.011   -9.156617    1.270417   -3.259057
   4 C     6.0000    0    12.011   -6.491982    0.410937    0.585926
   5 C     6.0000    0    12.011   -5.155375   -1.713205   -0.308112
   6 C     6.0000    0    12.011   -2.712609   -2.262520    0.510009
   7 C     6.0000    0    12.011   -1.489141   -0.678579    2.264151
   8 C     6.0000    0    12.011   -2.800082    1.454410    3.154884
   9 C     6.0000    0    12.011   -5.247921    1.983046    2.337017
  10 C     6.0000    0    12.011    1.120278   -1.153123    3.224043
  11 O     8.0000    0    15.999    2.143563    0.321471    4.677516
  12 C     6.0000    0    12.011    2.528120   -3.542451    2.377149
  13 C     6.0000    0    12.011    3.698756   -3.361876   -0.274691
  14 O     8.0000    0    15.999    2.627487   -4.366141   -2.061376
  15 C     6.0000    0    12.011    6.118043   -1.978728   -0.613244
  16 C     6.0000    0    12.011    7.210972   -1.907499   -3.051349
  17 C     6.0000    0    12.011    9.467725   -0.657695   -3.485732
  18 C     6.0000    0    12.011   10.721268    0.584170   -1.481137
  19 O     8.0000    0    15.999   12.903663    1.747221   -2.076813
  20 C     6.0000    0    12.011   14.286216    3.051074   -0.174463
  21 C     6.0000    0    12.011    9.654881    0.541742    0.954451
  22 C     6.0000    0    12.011    7.383835   -0.735534    1.367239
  23 H     1.0000    0     1.008  -10.469773    3.176353    2.907412
  24 H     1.0000    0     1.008   -9.229598    5.025943    0.375034
  25 H     1.0000    0     1.008  -12.265441    3.613997    0.102175
  26 H     1.0000    0     1.008  -10.241995   -3.108431   -0.548542
  27 H     1.0000    0     1.008  -12.850943   -0.997808   -0.326012
  28 H     1.0000    0     1.008  -10.964502   -1.635097    2.393899
  29 H     1.0000    0     1.008   -7.957686    2.884105   -3.804499
  30 H     1.0000    0     1.008   -8.437389   -0.423271   -4.229767
  31 H     1.0000    0     1.008  -11.084290    1.633992   -3.960873
  32 H     1.0000    0     1.008   -6.037377   -2.981476   -1.677138
  33 H     1.0000    0     1.008   -1.744376   -3.910744   -0.262382
  34 H     1.0000    0     1.008   -1.864925    2.697014    4.511548
  35 H     1.0000    0     1.008   -6.190419    3.654476    3.087165
  36 H     1.0000    0     1.008    4.003224   -3.894577    3.791840
  37 H     1.0000    0     1.008    1.234673   -5.163336    2.343476
  38 H     1.0000    0     1.008    6.237939   -2.865009   -4.598615
  39 H     1.0000    0     1.008   10.320937   -0.602569   -5.365000
  40 H     1.0000    0     1.008   15.964455    3.833233   -1.109426
  41 H     1.0000    0     1.008   13.165999    4.605953    0.644851
  42 H     1.0000    0     1.008   14.884281    1.759177    1.347848
  43 H     1.0000    0     1.008   10.576593    1.491943    2.532841
  44 H     1.0000    0     1.008    6.579198   -0.711102    3.265356

--------------------------------
INTERNAL COORDINATES (ANGSTROEM)
--------------------------------
 C      0   0   0     0.000000000000     0.00000000     0.00000000
 C      1   0   0     1.539723736816     0.00000000     0.00000000
 C      2   1   0     1.547688913353   108.33476575     0.00000000
 C      2   1   3     1.547530796385   108.37129901   118.59940846
 C      2   1   3     1.539765730770   112.28227729   239.33431579
 C      5   2   1     1.409817802107   119.97268463   179.95177331
 C      6   5   2     1.393874933605   121.82382971   180.53412886
 C      7   6   5     1.408322966753   120.45988924   359.56297329
 C      8   7   6     1.406219633548   118.15538841     0.00000000
 C      9   8   7     1.394085871625   121.02315754     0.32898634
 C      8   7   6     1.492585222682   123.33125175   179.91257713
 O     11   8   7     1.222172862595   121.10748753   177.34641181
 C     11   8   7     1.534443718136   119.23591935   357.01583826
 C     13  11   8     1.536915888045   114.27614114    79.19638954
 O     14  13  11     1.223808422660   119.45187761   258.63607174
 C     14  13  11     1.485533960735   119.21622354    78.91077396
 C     16  14  13     1.414391364565   118.39413502   177.84007316
 C     17  16  14     1.384345271188   121.12752276   180.25060782
 C     18  17  16     1.413210294016   120.16207934   359.80708003
 O     19  18  17     1.346063411143   116.07582349   179.94207193
 C     20  19  18     1.422928321489   119.81269183   179.80158331
 C     19  18  17     1.407161030969   119.46277259   359.91095120
 C     22  19  18     1.396013283396   119.75377208     0.37400162
 H      1   2   3     1.101654472550   111.89449973    59.76033966
 H      1   2   3     1.101616736464   111.92386656   181.37542748
 H      1   2   3     1.101507412403   109.48998342   300.57479129
 H      3   2   1     1.101003757262   111.92865156   177.03387229
 H      3   2   1     1.102529514442   110.02418532    57.28225347
 H      3   2   1     1.102303320790   110.97621471   297.80822367
 H      4   2   1     1.102281254531   111.00307734    61.84608440
 H      4   2   1     1.100910424348   111.89210795   182.61584585
 H      4   2   1     1.102500189524   110.02072626   302.35115121
 H      6   5   2     1.092295482459   119.87317115     0.40437587
 H      7   6   5     1.091017098593   119.07015032   181.04966139
 H      9   8   7     1.092096599419   118.69187039   180.17127068
 H     10   9   8     1.090246729127   118.34740248   179.74505562
 H     13  11   8     1.097488058000   106.61882802   201.30456884
 H     13  11   8     1.097504926905   110.23847682   319.21850034
 H     17  16  14     1.091907916726   118.60834640     0.17555177
 H     18  17  16     1.092550106842   121.35866484   179.82933041
 H     21  20  19     1.097632977236   106.25755671   180.15459783
 H     21  20  19     1.102900921278   111.31587760   299.07650830
 H     21  20  19     1.102939129689   111.32809533    61.22307793
 H     22  19  18     1.090124154984   120.99685152   180.31328323
 H     23  22  19     1.091040462956   118.31268435   181.09360019

---------------------------
INTERNAL COORDINATES (A.U.)
---------------------------
 C      0   0   0     0.000000000000     0.00000000     0.00000000
 C      1   0   0     2.909656184480     0.00000000     0.00000000
 C      2   1   0     2.924708186744   108.33476575     0.00000000
 C      2   1   3     2.924409388976   108.37129901   118.59940846
 C      2   1   3     2.909735541553   112.28227729   239.33431579
 C      5   2   1     2.664169544710   119.97268463   179.95177331
 C      6   5   2     2.634041889452   121.82382971   180.53412886
 C      7   6   5     2.661344715274   120.45988924   359.56297329
 C      8   7   6     2.657369991548   118.15538841     0.00000000
 C      9   8   7     2.634440504541   121.02315754     0.32898634
 C      8   7   6     2.820577302407   123.33125175   179.91257713
 O     11   8   7     2.309571998615   121.10748753   177.34641181
 C     11   8   7     2.899678395194   119.23591935   357.01583826
 C     13  11   8     2.904350119277   114.27614114    79.19638954
 O     14  13  11     2.312662759214   119.45187761   258.63607174
 C     14  13  11     2.807252348429   119.21622354    78.91077396
 C     16  14  13     2.672812325212   118.39413502   177.84007316
 C     17  16  14     2.616033437335   121.12752276   180.25060782
 C     18  17  16     2.670580425328   120.16207934   359.80708003
 O     19  18  17     2.543691205951   116.07582349   179.94207193
 C     20  19  18     2.688944835814   119.81269183   179.80158331
 C     19  18  17     2.659148974858   119.46277259   359.91095120
 C     22  19  18     2.638082784936   119.75377208     0.37400162
 H      1   2   3     2.081825247329   111.89449973    59.76033966
 H      1   2   3     2.081753936461   111.92386656   181.37542748
 H      1   2   3     2.081547343926   109.48998342   300.57479129
 H      3   2   1     2.080595573644   111.92865156   177.03387229
 H      3   2   1     2.083478836860   110.02418532    57.28225347
 H      3   2   1     2.083051392805   110.97621471   297.80822367
 H      4   2   1     2.083009693618   111.00307734    61.84608440
 H      4   2   1     2.080419199996   111.89210795   182.61584585
 H      4   2   1     2.083423420797   110.02072626   302.35115121
 H      6   5   2     2.064139319166   119.87317115     0.40437587
 H      7   6   5     2.061723523767   119.07015032   181.04966139
 H      9   8   7     2.063763484688   118.69187039   180.17127068
 H     10   9   8     2.060267736454   118.34740248   179.74505562
 H     13  11   8     2.073951864869   106.61882802   201.30456884
 H     13  11   8     2.073983742480   110.23847682   319.21850034
 H     17  16  14     2.063406926073   118.60834640     0.17555177
 H     18  17  16     2.064620489518   121.35866484   179.82933041
 H     21  20  19     2.074225722537   106.25755671   180.15459783
 H     21  20  19     2.084180694065   111.31587760   299.07650830
 H     21  20  19     2.084252897497   111.32809533    61.22307793
 H     22  19  18     2.060036104893   120.99685152   180.31328323
 H     23  22  19     2.061767676014   118.31268435   181.09360019

---------------------
BASIS SET INFORMATION
---------------------
There are 3 groups of distinct atoms

 Group   1 Type C   : 11s5p1d contracted to 4s3p1d pattern {6311/311/1}
 Group   2 Type O   : 11s5p1d contracted to 4s3p1d pattern {6311/311/1}
 Group   3 Type H   : 4s contracted to 2s pattern {31}

Atom   0C    basis set group =>   1
Atom   1C    basis set group =>   1
Atom   2C    basis set group =>   1
Atom   3C    basis set group =>   1
Atom   4C    basis set group =>   1
Atom   5C    basis set group =>   1
Atom   6C    basis set group =>   1
Atom   7C    basis set group =>   1
Atom   8C    basis set group =>   1
Atom   9C    basis set group =>   1
Atom  10C    basis set group =>   1
Atom  11O    basis set group =>   2
Atom  12C    basis set group =>   1
Atom  13C    basis set group =>   1
Atom  14O    basis set group =>   2
Atom  15C    basis set group =>   1
Atom  16C    basis set group =>   1
Atom  17C    basis set group =>   1
Atom  18C    basis set group =>   1
Atom  19O    basis set group =>   2
Atom  20C    basis set group =>   1
Atom  21C    basis set group =>   1
Atom  22C    basis set group =>   1
Atom  23H    basis set group =>   3
Atom  24H    basis set group =>   3
Atom  25H    basis set group =>   3
Atom  26H    basis set group =>   3
Atom  27H    basis set group =>   3
Atom  28H    basis set group =>   3
Atom  29H    basis set group =>   3
Atom  30H    basis set group =>   3
Atom  31H    basis set group =>   3
Atom  32H    basis set group =>   3
Atom  33H    basis set group =>   3
Atom  34H    basis set group =>   3
Atom  35H    basis set group =>   3
Atom  36H    basis set group =>   3
Atom  37H    basis set group =>   3
Atom  38H    basis set group =>   3
Atom  39H    basis set group =>   3
Atom  40H    basis set group =>   3
Atom  41H    basis set group =>   3
Atom  42H    basis set group =>   3
Atom  43H    basis set group =>   3
Atom  44H    basis set group =>   3
---------------------------------
AUXILIARY/J BASIS SET INFORMATION
---------------------------------
There are 3 groups of distinct atoms

 Group   1 Type C   : 12s5p4d2f1g contracted to 6s4p3d1f1g pattern {711111/2111/211/2/1}
 Group   2 Type O   : 12s5p4d2f1g contracted to 6s4p3d1f1g pattern {711111/2111/211/2/1}
 Group   3 Type H   : 5s2p1d contracted to 3s1p1d pattern {311/2/1}

Atom   0C    basis set group =>   1
Atom   1C    basis set group =>   1
Atom   2C    basis set group =>   1
Atom   3C    basis set group =>   1
Atom   4C    basis set group =>   1
Atom   5C    basis set group =>   1
Atom   6C    basis set group =>   1
Atom   7C    basis set group =>   1
Atom   8C    basis set group =>   1
Atom   9C    basis set group =>   1
Atom  10C    basis set group =>   1
Atom  11O    basis set group =>   2
Atom  12C    basis set group =>   1
Atom  13C    basis set group =>   1
Atom  14O    basis set group =>   2
Atom  15C    basis set group =>   1
Atom  16C    basis set group =>   1
Atom  17C    basis set group =>   1
Atom  18C    basis set group =>   1
Atom  19O    basis set group =>   2
Atom  20C    basis set group =>   1
Atom  21C    basis set group =>   1
Atom  22C    basis set group =>   1
Atom  23H    basis set group =>   3
Atom  24H    basis set group =>   3
Atom  25H    basis set group =>   3
Atom  26H    basis set group =>   3
Atom  27H    basis set group =>   3
Atom  28H    basis set group =>   3
Atom  29H    basis set group =>   3
Atom  30H    basis set group =>   3
Atom  31H    basis set group =>   3
Atom  32H    basis set group =>   3
Atom  33H    basis set group =>   3
Atom  34H    basis set group =>   3
Atom  35H    basis set group =>   3
Atom  36H    basis set group =>   3
Atom  37H    basis set group =>   3
Atom  38H    basis set group =>   3
Atom  39H    basis set group =>   3
Atom  40H    basis set group =>   3
Atom  41H    basis set group =>   3
Atom  42H    basis set group =>   3
Atom  43H    basis set group =>   3
Atom  44H    basis set group =>   3


           ************************************************************
           *        Program running with 4 parallel MPI-processes     *
           *              working on a common directory               *
           ************************************************************
------------------------------------------------------------------------------
                             ORCA STARTUP CALCULATIONS
                           -- RI-GTO INTEGRALS CHOSEN --
------------------------------------------------------------------------------
------------------------------------------------------------------------------
                   ___                                                        
                  /   \      - P O W E R E D   B Y -                         
                 /     \                                                     
                 |  |  |   _    _      __       _____    __    __             
                 |  |  |  | |  | |    /  \     |  _  \  |  |  /  |          
                  \  \/   | |  | |   /    \    | | | |  |  | /  /          
                 / \  \   | |__| |  /  /\  \   | |_| |  |  |/  /          
                |  |  |   |  __  | /  /__\  \  |    /   |      \           
                |  |  |   | |  | | |   __   |  |    \   |  |\   \          
                \     /   | |  | | |  |  |  |  | |\  \  |  | \   \       
                 \___/    |_|  |_| |__|  |__|  |_| \__\ |__|  \__/        
                                                                              
                      - O R C A' S   B I G   F R I E N D -                    
                                      &                                       
                       - I N T E G R A L  F E E D E R -                       
                                                                              
 v1 FN, 2020, v2 2021, v3 2022-2024                                           
------------------------------------------------------------------------------


----------------------
SHARK INTEGRAL PACKAGE
----------------------

Number of atoms                             ...     45
Number of basis functions                   ...    458
Number of shells                            ...    228
Maximum angular momentum                    ...      2
Integral batch strategy                     ... SHARK/LIBINT Hybrid
RI-J (if used) integral strategy            ... SPLIT-RIJ (Revised 2003 algorithm where possible)
Printlevel                                  ...      1
Contraction scheme used                     ... SEGMENTED contraction
Prescreening option                         ... SCHWARTZ
   Thresh                                   ... 2.500e-11
   Tcut                                     ... 2.500e-12
   Tpresel                                  ... 2.500e-12 
Coulomb Range Separation                    ... NOT USED
Exchange Range Separation                   ... NOT USED
Multipole approximations                    ... NOT USED
Finite Nucleus Model                        ... NOT USED
CABS basis                                  ... NOT available
Auxiliary Coulomb fitting basis             ... AVAILABLE
   # of basis functions in Aux-J            ...   1369
   # of shells in Aux-J                     ...    455
   Maximum angular momentum in Aux-J        ...      4
Auxiliary J/K fitting basis                 ... NOT available
Auxiliary Correlation fitting basis         ... NOT available
Auxiliary 'external' fitting basis          ... NOT available

Checking pre-screening integrals            ... done (  0.0 sec) Dimension = 228
   => SHARK Basis and OBASIS are compatible. Storing Pre-screening
Shell pair information
Shell pair cut-off parameter TPreSel        ...   2.5e-12
Total number of shell pairs                 ...     26106
Shell pairs after pre-screening             ...     19466
Total number of primitive shell pairs       ...    115509
Primitive shell pairs kept                  ...     52695
          la=0 lb=0:   6465 shell pairs
          la=1 lb=0:   7564 shell pairs
          la=1 lb=1:   2151 shell pairs
          la=2 lb=0:   1918 shell pairs
          la=2 lb=1:   1220 shell pairs
          la=2 lb=2:    148 shell pairs

Checking whether 4 symmetric matrices of dimension 458 fit in memory
:Max Core in MB      =   2500.00
 MB in use           =     23.07
 MB left             =   2476.93
 MB needed           =      3.21
 Data fit in memory  = YES
Calculating RI/J V-Matrix + Cholesky decomp.... done (  0.1 sec)
Calculating Nuclear repulsion               ... done (  0.0 sec) ENN=   1772.096375593933 Eh

Diagonalization of the overlap matrix:
Smallest eigenvalue                        ... 5.593e-07
Time for diagonalization                   ...    0.025 sec
Threshold for overlap eigenvalues          ... 1.000e-07
Number of eigenvalues below threshold      ... 0

IMPORTANT:
Smallest eigenvalue of S below the DiffSThresh (1.000e-06) while
Thresh>1e-12 and/or TCut>1e-13! In order to avoid SCF convergence issues,
Thresh will be set to at least 1e-12 and TCut to at least 1e-13.
This can be turned off by adding %SCF DiffSThresh -1 END to the input.

Time for construction of square roots      ...    0.019 sec
Total time needed                          ...    0.046 sec

-------------------
DFT GRID GENERATION
-------------------

General Integration Accuracy     IntAcc      ... 4.388
Radial Grid Type                 RadialGrid  ... OptM3 with GC (2021)
Angular Grid (max. ang.)         AngularGrid ... 4 (Lebedev-302)
Angular grid pruning method      GridPruning ... 4 (adaptive)
Weight generation scheme         WeightScheme... mBecke (2022)
Basis function cutoff            BFCut       ... 1.0000e-11
Integration weight cutoff        WCut        ... 1.0000e-14
Partially contracted basis set               ... off
Rotationally invariant grid construction     ... off
Angular grids for H and He will be reduced by one unit
Diffuse basis detected: some atoms will have their outermost
                        angular grid increased by 1.

Total number of grid points                  ...   213106
Total number of batches                      ...     3350
Average number of points per batch           ...       63
Average number of grid points per atom       ...     4736

--------------------
COSX GRID GENERATION
--------------------

GRIDX 1
-------
General Integration Accuracy     IntAcc      ... 3.816
Radial Grid Type                 RadialGrid  ... OptM3 with GC (2021)
Angular Grid (max. ang.)         AngularGrid ... 1 (Lebedev-50)
Angular grid pruning method      GridPruning ... 4 (adaptive)
Weight generation scheme         WeightScheme... mBecke (2022)
Basis function cutoff            BFCut       ... 1.0000e-11
Integration weight cutoff        WCut        ... 1.0000e-14
Partially contracted basis set               ... on
Rotationally invariant grid construction     ... off
Angular grids for H and He will be reduced by one unit
Diffuse basis detected: some atoms will have their outermost
                        angular grid increased by 1.

Total number of grid points                  ...    27181
Total number of batches                      ...      240
Average number of points per batch           ...      113
Average number of grid points per atom       ...      604
UseSFitting                                  ... on

GRIDX 2
-------
General Integration Accuracy     IntAcc      ... 4.020
Radial Grid Type                 RadialGrid  ... OptM3 with GC (2021)
Angular Grid (max. ang.)         AngularGrid ... 2 (Lebedev-110)
Angular grid pruning method      GridPruning ... 4 (adaptive)
Weight generation scheme         WeightScheme... mBecke (2022)
Basis function cutoff            BFCut       ... 1.0000e-11
Integration weight cutoff        WCut        ... 1.0000e-14
Partially contracted basis set               ... on
Rotationally invariant grid construction     ... off
Angular grids for H and He will be reduced by one unit
Diffuse basis detected: some atoms will have their outermost
                        angular grid increased by 1.

Total number of grid points                  ...    62467
Total number of batches                      ...      512
Average number of points per batch           ...      122
Average number of grid points per atom       ...     1388
UseSFitting                                  ... on

GRIDX 3
-------
General Integration Accuracy     IntAcc      ... 4.338
Radial Grid Type                 RadialGrid  ... OptM3 with GC (2021)
Angular Grid (max. ang.)         AngularGrid ... 3 (Lebedev-194)
Angular grid pruning method      GridPruning ... 4 (adaptive)
Weight generation scheme         WeightScheme... mBecke (2022)
Basis function cutoff            BFCut       ... 1.0000e-11
Integration weight cutoff        WCut        ... 1.0000e-14
Partially contracted basis set               ... on
Rotationally invariant grid construction     ... off
Angular grids for H and He will be reduced by one unit
Diffuse basis detected: some atoms will have their outermost
                        angular grid increased by 1.

Total number of grid points                  ...   134570
Total number of batches                      ...     1074
Average number of points per batch           ...      125
Average number of grid points per atom       ...     2990
UseSFitting                                  ... on
Grids setup in   5.4 sec
Initializing property integral containers    ... done (  0.1 sec)

SHARK setup successfully completed in   6.1 seconds

Maximum memory used throughout the entire STARTUP-calculation: 68.1 MB


           ************************************************************
           *        Program running with 4 parallel MPI-processes     *
           *              working on a common directory               *
           ************************************************************
-------------------------------------------------------------------------------
                                 ORCA GUESS
                   Start orbitals & Density for SCF / CASSCF
-------------------------------------------------------------------------------

------------
SCF SETTINGS
------------
Hamiltonian:
 Density Functional     Method          .... DFT(GTOs)
 Exchange Functional    Exchange        .... B88
   X-Alpha parameter    XAlpha          ....  0.666667
   Becke's b parameter  XBeta           ....  0.004200
 Correlation Functional Correlation     .... LYP
 LDA part of GGA corr.  LDAOpt          .... VWN-5
 Gradients option       PostSCFGGA      .... off
 Hybrid DFT is turned on
   Fraction HF Exchange ScalHFX         ....  0.200000
   Scaling of DF-GGA-X  ScalDFX         ....  0.720000
   Scaling of DF-GGA-C  ScalDFC         ....  0.810000
   Scaling of DF-LDA-C  ScalLDAC        ....  1.000000
   Perturbative correction              ....  0.000000
   NL short-range parameter             ....  4.800000
 RI-approximation to the Coulomb term is turned on
   Number of AuxJ basis functions       .... 1369
   RIJ-COSX (HFX calculated with COS-X)).... on


General Settings:
 Integral files         IntName         .... td
 Hartree-Fock type      HFTyp           .... RHF
 Total Charge           Charge          ....    0
 Multiplicity           Mult            ....    1
 Number of Electrons    NEL             ....  166
 Basis Dimension        Dim             ....  458
 Nuclear Repulsion      ENuc            ....   1772.0963755939 Eh

Convergence Acceleration:
 AO-DIIS                CNVDIIS         .... on
   Start iteration      DIISMaxIt       ....    12
   Startup error        DIISStart       ....  0.200000
   # of expansion vecs  DIISMaxEq       ....     5
   Bias factor          DIISBfac        ....   1.050
   Max. coefficient     DIISMaxC        ....  10.000
 MO-DIIS                CNVKDIIS        .... off
 Trust-Rad. Augm. Hess. CNVTRAH         .... auto
   Auto Start mean grad. ratio tolernc. ....  1.125000
   Auto Start start iteration           ....    50
   Auto Start num. interpolation iter.  ....    10
   Max. Number of Micro iterations      ....    24
   Max. Number of Macro iterations      .... Maxiter - #DIIS iter
   Number of Davidson start vectors     ....     2
   Converg. threshold    (grad. norm)   ....   1.000e-05
   Grad. Scal. Fac. for Micro threshold ....   0.100
   Minimum threshold for Micro iter.    ....   1.000e-02
   NR start threshold (gradient norm)   ....   1.000e-04
   Initial trust radius                 ....   0.400
   Minimum AH scaling param. (alpha)    ....   1.000
   Maximum AH scaling param. (alpha)    .... 1000.000
   Quad. conv. algorithm                .... NR
   White noise on init. David. guess    .... on
   Maximum white noise                  ....   0.010
   Pseudo random numbers                .... off
   Inactive MOs                         .... canonical
   Orbital update algorithm             .... Taylor
   Preconditioner                       .... Diag
   Full preconditioner red. dimension   ....   250
 SOSCF                 CNVSOSCF           .... on
   Start iteration     SOSCFMaxIt         ....   150
   Startup grad/error  SOSCFStart         ....  0.003300
   Hessian update      SOSCFHessUp        .... L-BFGS
   Autom. constraints  SOSCFAutoConstrain .... off
 Level Shifting         CNVShift        .... on
   Level shift para.    LevelShift      ....    0.2500
   Turn off err/grad.   ShiftErr        ....    0.0010
 Zerner damping         CNVZerner       .... off
 Static damping         CNVDamp         .... on
   Fraction old density DampFac         ....    0.7000
   Max. Damping (<1)    DampMax         ....    0.9800
   Min. Damping (>=0)   DampMin         ....    0.0000
   Turn off err/grad.   DampErr         ....    0.1000

SCF Procedure:
 Maximum # iterations   MaxIter         ....   300
 SCF integral mode      SCFMode         .... Direct
   Integral package                     .... SHARK and LIBINT hybrid scheme
 Reset frequency        DirectResetFreq ....    20
 Integral Threshold     Thresh          ....  1.000e-12 Eh
 Primitive CutOff       TCut            ....  1.000e-13 Eh

Convergence Tolerance:
 Convergence Check Mode ConvCheckMode   .... Total+1el-Energy
 Convergence forced     ConvForced      .... 1
 Energy Change          TolE            ....  1.000e-08 Eh
 1-El. energy change                    ....  1.000e-05 Eh
 Orbital Gradient       TolG            ....  1.000e-05
 Orbital Rotation angle TolX            ....  1.000e-05
 DIIS Error             TolErr          ....  5.000e-07

------------------------------
INITIAL GUESS: MODEL POTENTIAL
------------------------------
Loading Hartree-Fock densities                     ... done
Calculating cut-offs                               ... done
Initializing the effective Hamiltonian             ... done
Setting up the integral package (SHARK)            ... done
Starting the Coulomb interaction                   ... done (   1.0 sec)
Making the grid                                    ... done (   0.9 sec)
Mapping shells                                     ... done
Starting the XC term evaluation                    ... done (   1.0 sec)
  promolecular density results
     # of electrons  =    165.988362323
     EX              =   -133.897620289
     EC              =     -5.589061586
     EX+EC           =   -139.486681875
Transforming the Hamiltonian                       ... done (   0.0 sec)
Diagonalizing the Hamiltonian                      ... done (   0.0 sec)
Back transforming the eigenvectors                 ... done (   0.0 sec)
Now organizing SCF variables                       ... done
                      ------------------
                      INITIAL GUESS DONE (   3.0 sec)
                      ------------------
             **** ENERGY FILE WAS UPDATED (td.en.tmp) ****
Finished Guess after   3.3 sec
Maximum memory used throughout the entire GUESS-calculation: 30.8 MB


           ************************************************************
           *        Program running with 4 parallel MPI-processes     *
           *              working on a common directory               *
           ************************************************************

-------------------------------------------------------------------------------------------
                                      ORCA LEAN-SCF
                              memory conserving SCF solver
-------------------------------------------------------------------------------------------

--------------------
CPCM SOLVATION MODEL
--------------------
CPCM parameters:
  Epsilon                                         ...      25.4510
  Refrac                                          ...       1.3611
  Rsolv                                           ...       1.3000
  Surface type                                    ... GAUSSIAN VDW
  Discretization scheme                           ... Constant charge density
    Threshold for H atoms                         ...       5.0000 (charges/Ang^2)
    Threshold for non-H atoms                     ...       5.0000 (charges/Ang^2)
  Epsilon function type                           ...         CPCM
Solvent:                                          ... ETHANOL
Radii:
  Scheme                                          ... Element-dependent radii
  Radius for C  used is    3.8550 Bohr (=   2.0400 Ang.)
  Radius for O  used is    3.4469 Bohr (=   1.8240 Ang.)
  Radius for H  used is    2.4944 Bohr (=   1.3200 Ang.)
Calculating surface                               ...        done! (  0.0s)
Cavity surface points                             ...         3767
Cavity Volume                                     ...    2656.8738
Cavity Surface-area                               ...    1350.7937
Calculating surface distance matrix               ...        done! (  0.2s)
Performing Cholesky decomposition & store         ...        done! (  0.7s)
Overall time for CPCM initialization              ...                 0.8s

----------------------------------------D-I-I-S--------------------------------------------
Iteration    Energy (Eh)           Delta-E    RMSDP     MaxDP     DIISErr   Damp  Time(sec)
-------------------------------------------------------------------------------------------
               ***  Starting incremental Fock matrix formation  ***
    1    -999.9214214376982000     0.00e+00  4.14e-02  1.36e+00  2.42e-01  0.700  31.6
    2    -1000.1791848104774090    -2.58e-01  4.21e-02  2.49e+00  9.41e-02  0.700  18.8
                               ***Turning on AO-DIIS***
    3    -1000.2820837078259046    -1.03e-01  2.23e-02  9.97e-01  3.29e-02  0.700  16.1
    4    -1000.3440587027478159    -6.20e-02  7.11e-02  3.69e+00  1.58e-02  0.000  14.6
    5    -1000.4786722841342907    -1.35e-01  1.87e-02  1.06e+00  5.38e-03  0.000  15.9
                              *** Initializing SOSCF ***
---------------------------------------S-O-S-C-F--------------------------------------
Iteration    Energy (Eh)           Delta-E    RMSDP     MaxDP     MaxGrad    Time(sec)
--------------------------------------------------------------------------------------
    6    -1000.4794266687974869    -7.54e-04  5.46e-03  2.82e-01  9.72e-04    15.8
               *** Restarting incremental Fock matrix formation ***
    7    -1000.4794306376950317    -3.97e-06  7.14e-03  2.27e-01  1.58e-04    33.2
    8    -1000.4794336907887100    -3.05e-06  1.82e-03  5.62e-02  2.58e-04    23.4
    9    -1000.4794365438549448    -2.85e-06  2.03e-03  6.56e-02  1.18e-04    23.1
   10    -1000.4794369172557253    -3.73e-07  3.19e-04  1.41e-02  4.65e-05    25.3
   11    -1000.4794371954706094    -2.78e-07  4.81e-04  1.45e-02  1.27e-05    19.4
   12    -1000.4794371891591709     6.31e-09  1.70e-04  6.43e-03  1.72e-05    19.7
                 **** Energy Check signals convergence ****

               *****************************************************
               *                     SUCCESS                       *
               *           SCF CONVERGED AFTER  12 CYCLES          *
               *****************************************************

Recomputing exchange energy using gridx3       ... done (   47.294 sec)
Old exchange energy                            :    -27.219650107 Eh
New exchange energy                            :    -27.219713242 Eh
Exchange energy change after final integration :     -0.000063135 Eh
Total energy after final integration           :  -1000.479500335 Eh
             **** ENERGY FILE WAS UPDATED (td.en.tmp) ****

----------------
TOTAL SCF ENERGY
----------------

Total Energy       :      -1000.47950033509119 Eh          -27224.43127 eV

Components:
Nuclear Repulsion  :       1772.09637559393309 Eh           48221.19390 eV
Electronic Energy  :      -2772.55470989600963 Eh          -75445.04921 eV
One Electron Energy:      -4878.05768196277677 Eh         -132738.69783 eV
Two Electron Energy:       2105.50297206676714 Eh           57293.64862 eV
CPCM Dielectric    :         -0.02110289803324 Eh              -0.57424 eV

Virial components:
Potential Energy   :      -1994.69320146491282 Eh          -54278.36147 eV
Kinetic Energy     :        994.21370112982152 Eh           27053.93020 eV
Virial Ratio       :          2.00630226599990

DFT components:
N(Alpha)           :       82.999922321730 electrons
N(Beta)            :       82.999922321730 electrons
N(Total)           :      165.999844643461 electrons
E(X)               :     -108.092578002535 Eh       
E(C)               :       -6.585455230630 Eh       
E(XC)              :     -114.678033233166 Eh       

CPCM Solvation Model Properties:
Surface-charge          :         -0.04368923796334
Corrected charge        :          0.00000000000000
Outlying charge corr.   :          0.00009117850000 Eh               0.00248 eV
Free-energy (cav+disp)  :  This term is not implemented in the current solvation scheme

---------------
SCF CONVERGENCE
---------------

  Last Energy change         ...   -6.3114e-09  Tolerance :   1.0000e-08
  Last MAX-Density change    ...    6.4264e-03  Tolerance :   1.0000e-07
  Last RMS-Density change    ...    1.7002e-04  Tolerance :   5.0000e-09
  Last DIIS Error            ...    9.7202e-04  Tolerance :   5.0000e-07
  Last Orbital Gradient      ...    1.7208e-05  Tolerance :   1.0000e-05
  Last Orbital Rotation      ...    2.2507e-05  Tolerance :   1.0000e-05


----------------
ORBITAL ENERGIES
----------------

  NO   OCC          E(Eh)            E(eV) 
   0   2.0000     -19.195162      -522.3269 
   1   2.0000     -19.153648      -521.1973 
   2   2.0000     -19.150682      -521.1166 
   3   2.0000     -10.291896      -280.0567 
   4   2.0000     -10.290008      -280.0054 
   5   2.0000     -10.267117      -279.3825 
   6   2.0000     -10.232100      -278.4296 
   7   2.0000     -10.206141      -277.7232 
   8   2.0000     -10.204857      -277.6883 
   9   2.0000     -10.201797      -277.6050 
  10   2.0000     -10.201695      -277.6022 
  11   2.0000     -10.201175      -277.5881 
  12   2.0000     -10.200067      -277.5579 
  13   2.0000     -10.198408      -277.5128 
  14   2.0000     -10.196569      -277.4627 
  15   2.0000     -10.195677      -277.4385 
  16   2.0000     -10.195611      -277.4367 
  17   2.0000     -10.194387      -277.4034 
  18   2.0000     -10.190704      -277.3032 
  19   2.0000     -10.190639      -277.3014 
  20   2.0000     -10.166286      -276.6387 
  21   2.0000     -10.166209      -276.6366 
  22   2.0000     -10.164313      -276.5850 
  23   2.0000      -1.086422       -29.5631 
  24   2.0000      -1.058735       -28.8097 
  25   2.0000      -1.053718       -28.6731 
  26   2.0000      -0.869255       -23.6536 
  27   2.0000      -0.866181       -23.5700 
  28   2.0000      -0.819671       -22.3044 
  29   2.0000      -0.789762       -21.4905 
  30   2.0000      -0.767852       -20.8943 
  31   2.0000      -0.760123       -20.6840 
  32   2.0000      -0.752744       -20.4832 
  33   2.0000      -0.742079       -20.1930 
  34   2.0000      -0.707473       -19.2513 
  35   2.0000      -0.681597       -18.5472 
  36   2.0000      -0.680444       -18.5158 
  37   2.0000      -0.643844       -17.5199 
  38   2.0000      -0.629279       -17.1235 
  39   2.0000      -0.616847       -16.7853 
  40   2.0000      -0.606142       -16.4940 
  41   2.0000      -0.572891       -15.5891 
  42   2.0000      -0.554824       -15.0975 
  43   2.0000      -0.549374       -14.9492 
  44   2.0000      -0.541335       -14.7305 
  45   2.0000      -0.513646       -13.9770 
  46   2.0000      -0.497385       -13.5345 
  47   2.0000      -0.484607       -13.1868 
  48   2.0000      -0.477455       -12.9922 
  49   2.0000      -0.474547       -12.9131 
  50   2.0000      -0.463734       -12.6188 
  51   2.0000      -0.456252       -12.4152 
  52   2.0000      -0.454903       -12.3785 
  53   2.0000      -0.448603       -12.2071 
  54   2.0000      -0.442501       -12.0411 
  55   2.0000      -0.435316       -11.8455 
  56   2.0000      -0.433765       -11.8034 
  57   2.0000      -0.427509       -11.6331 
  58   2.0000      -0.419125       -11.4050 
  59   2.0000      -0.418275       -11.3818 
  60   2.0000      -0.409945       -11.1552 
  61   2.0000      -0.404729       -11.0132 
  62   2.0000      -0.400401       -10.8955 
  63   2.0000      -0.394619       -10.7381 
  64   2.0000      -0.389617       -10.6020 
  65   2.0000      -0.380075       -10.3424 
  66   2.0000      -0.378293       -10.2939 
  67   2.0000      -0.370851       -10.0914 
  68   2.0000      -0.366957        -9.9854 
  69   2.0000      -0.361802        -9.8451 
  70   2.0000      -0.357651        -9.7322 
  71   2.0000      -0.353027        -9.6063 
  72   2.0000      -0.335205        -9.1214 
  73   2.0000      -0.330643        -8.9972 
  74   2.0000      -0.329050        -8.9539 
  75   2.0000      -0.326664        -8.8890 
  76   2.0000      -0.316774        -8.6199 
  77   2.0000      -0.276682        -7.5289 
  78   2.0000      -0.267497        -7.2790 
  79   2.0000      -0.262153        -7.1336 
  80   2.0000      -0.261500        -7.1158 
  81   2.0000      -0.254453        -6.9240 
  82   2.0000      -0.237925        -6.4743 
  83   0.0000      -0.079594        -2.1659 
  84   0.0000      -0.057381        -1.5614 
  85   0.0000      -0.020325        -0.5531 
  86   0.0000      -0.015873        -0.4319 
  87   0.0000       0.004076         0.1109 
  88   0.0000       0.012189         0.3317 
  89   0.0000       0.019726         0.5368 
  90   0.0000       0.023574         0.6415 
  91   0.0000       0.024527         0.6674 
  92   0.0000       0.029447         0.8013 
  93   0.0000       0.030871         0.8400 
*Only the first 10 virtual orbitals were printed.

                    ********************************
                    * MULLIKEN POPULATION ANALYSIS *
                    ********************************

-----------------------
MULLIKEN ATOMIC CHARGES
-----------------------
   0 C :   -0.575937
   1 C :    0.493166
   2 C :   -0.682314
   3 C :   -0.678706
   4 C :    0.077350
   5 C :   -0.907474
   6 C :   -0.260401
   7 C :    0.974244
   8 C :   -0.244099
   9 C :   -0.516047
  10 C :   -0.205443
  11 O :   -0.450365
  12 C :   -0.372536
  13 C :   -0.053366
  14 O :   -0.464272
  15 C :    1.059125
  16 C :   -0.040105
  17 C :   -0.363644
  18 C :    0.102333
  19 O :   -0.399442
  20 C :   -0.367386
  21 C :   -0.184919
  22 C :   -0.923307
  23 H :    0.227245
  24 H :    0.226830
  25 H :    0.220804
  26 H :    0.223330
  27 H :    0.220212
  28 H :    0.223714
  29 H :    0.223829
  30 H :    0.223046
  31 H :    0.219979
  32 H :    0.211411
  33 H :    0.223680
  34 H :    0.223499
  35 H :    0.207584
  36 H :    0.264755
  37 H :    0.264830
  38 H :    0.228431
  39 H :    0.219536
  40 H :    0.226990
  41 H :    0.228027
  42 H :    0.227853
  43 H :    0.221199
  44 H :    0.226759
Sum of atomic charges:    0.0000000

--------------------------------
MULLIKEN REDUCED ORBITAL CHARGES
--------------------------------
  0 C s       :     3.473320  s :     3.473320
      pz      :     1.053575  p :     3.068091
      px      :     1.072467
      py      :     0.942049
      dz2     :     0.011770  d :     0.034526
      dxz     :     0.003668
      dyz     :     0.003625
      dx2y2   :     0.007702
      dxy     :     0.007760

  1 C s       :     2.769439  s :     2.769439
      pz      :     0.925849  p :     2.688866
      px      :     0.876795
      py      :     0.886223
      dz2     :     0.011825  d :     0.048529
      dxz     :     0.007984
      dyz     :     0.008218
      dx2y2   :     0.010380
      dxy     :     0.010121

  2 C s       :     3.546573  s :     3.546573
      pz      :     1.088055  p :     3.101223
      px      :     1.040563
      py      :     0.972605
      dz2     :     0.010393  d :     0.034517
      dxz     :     0.003433
      dyz     :     0.005443
      dx2y2   :     0.009391
      dxy     :     0.005857

  3 C s       :     3.544193  s :     3.544193
      pz      :     0.902787  p :     3.100001
      px      :     1.099608
      py      :     1.097606
      dz2     :     0.007685  d :     0.034512
      dxz     :     0.006123
      dyz     :     0.007553
      dx2y2   :     0.006045
      dxy     :     0.007106

  4 C s       :     2.969540  s :     2.969540
      pz      :     1.030107  p :     2.912538
      px      :     1.015652
      py      :     0.866780
      dz2     :     0.006899  d :     0.040572
      dxz     :     0.007835
      dyz     :     0.006056
      dx2y2   :     0.009356
      dxy     :     0.010427

  5 C s       :     3.840065  s :     3.840065
      pz      :     1.012123  p :     3.031879
      px      :     0.990050
      py      :     1.029706
      dz2     :     0.003845  d :     0.035530
      dxz     :     0.007230
      dyz     :     0.006949
      dx2y2   :     0.008131
      dxy     :     0.009374

  6 C s       :     2.813123  s :     2.813123
      pz      :     1.164661  p :     3.410631
      px      :     1.158350
      py      :     1.087621
      dz2     :     0.005877  d :     0.036646
      dxz     :     0.007420
      dyz     :     0.005757
      dx2y2   :     0.007388
      dxy     :     0.010203

  7 C s       :     2.410797  s :     2.410797
      pz      :     1.110669  p :     2.577047
      px      :     0.906220
      py      :     0.560158
      dz2     :     0.006295  d :     0.037911
      dxz     :     0.006841
      dyz     :     0.006344
      dx2y2   :     0.009857
      dxy     :     0.008575

  8 C s       :     3.242313  s :     3.242313
      pz      :     0.946785  p :     2.965331
      px      :     1.120856
      py      :     0.897690
      dz2     :     0.003713  d :     0.036455
      dxz     :     0.007908
      dyz     :     0.006841
      dx2y2   :     0.008360
      dxy     :     0.009634

  9 C s       :     3.250569  s :     3.250569
      pz      :     0.970192  p :     3.229726
      px      :     1.149795
      py      :     1.109739
      dz2     :     0.005275  d :     0.035752
      dxz     :     0.007192
      dyz     :     0.005686
      dx2y2   :     0.007916
      dxy     :     0.009684

 10 C s       :     3.828995  s :     3.828995
      pz      :     0.783487  p :     2.285467
      px      :     0.796452
      py      :     0.705528
      dz2     :     0.014609  d :     0.090982
      dxz     :     0.017448
      dyz     :     0.015775
      dx2y2   :     0.024439
      dxy     :     0.018711

 11 O s       :     3.918536  s :     3.918536
      pz      :     1.348987  p :     4.506664
      px      :     1.657544
      py      :     1.500133
      dz2     :     0.007286  d :     0.025165
      dxz     :     0.003905
      dyz     :     0.005040
      dx2y2   :     0.004070
      dxy     :     0.004865

 12 C s       :     3.515892  s :     3.515892
      pz      :     0.901369  p :     2.822388
      px      :     0.987314
      py      :     0.933704
      dz2     :     0.007758  d :     0.034256
      dxz     :     0.009131
      dyz     :     0.003603
      dx2y2   :     0.004200
      dxy     :     0.009564

 13 C s       :     3.689455  s :     3.689455
      pz      :     0.658865  p :     2.272764
      px      :     0.793406
      py      :     0.820493
      dz2     :     0.030292  d :     0.091147
      dxz     :     0.021527
      dyz     :     0.014890
      dx2y2   :     0.011759
      dxy     :     0.012679

 14 O s       :     3.919681  s :     3.919681
      pz      :     1.495101  p :     4.519589
      px      :     1.602325
      py      :     1.422163
      dz2     :     0.006095  d :     0.025002
      dxz     :     0.006135
      dyz     :     0.006119
      dx2y2   :     0.003926
      dxy     :     0.002727

 15 C s       :     2.518011  s :     2.518011
      pz      :     0.543803  p :     2.385356
      px      :     0.758901
      py      :     1.082652
      dz2     :     0.010388  d :     0.037508
      dxz     :     0.009913
      dyz     :     0.007235
      dx2y2   :     0.004326
      dxy     :     0.005646

 16 C s       :     3.178996  s :     3.178996
      pz      :     0.905718  p :     2.824171
      px      :     0.963802
      py      :     0.954651
      dz2     :     0.008201  d :     0.036938
      dxz     :     0.010572
      dyz     :     0.007305
      dx2y2   :     0.005155
      dxy     :     0.005705

 17 C s       :     3.306004  s :     3.306004
      pz      :     1.054419  p :     3.023574
      px      :     0.980045
      py      :     0.989110
      dz2     :     0.008037  d :     0.034066
      dxz     :     0.010903
      dyz     :     0.005059
      dx2y2   :     0.005264
      dxy     :     0.004802

 18 C s       :     3.280964  s :     3.280964
      pz      :     1.043459  p :     2.543283
      px      :     0.669864
      py      :     0.829960
      dz2     :     0.014541  d :     0.073420
      dxz     :     0.017837
      dyz     :     0.011158
      dx2y2   :     0.015795
      dxy     :     0.014090

 19 O s       :     3.859581  s :     3.859581
      pz      :     1.556970  p :     4.510337
      px      :     1.363565
      py      :     1.589801
      dz2     :     0.005600  d :     0.029523
      dxz     :     0.007421
      dyz     :     0.005413
      dx2y2   :     0.005913
      dxy     :     0.005178

 20 C s       :     3.372564  s :     3.372564
      pz      :     0.923401  p :     2.936738
      px      :     0.999122
      py      :     1.014216
      dz2     :     0.007565  d :     0.058084
      dxz     :     0.014622
      dyz     :     0.017092
      dx2y2   :     0.006583
      dxy     :     0.012221

 21 C s       :     2.809076  s :     2.809076
      pz      :     0.957339  p :     3.341905
      px      :     1.205566
      py      :     1.179001
      dz2     :     0.007850  d :     0.033938
      dxz     :     0.010313
      dyz     :     0.006520
      dx2y2   :     0.004116
      dxy     :     0.005138

 22 C s       :     3.259263  s :     3.259263
      pz      :     1.180705  p :     3.626825
      px      :     1.284456
      py      :     1.161665
      dz2     :     0.009803  d :     0.037219
      dxz     :     0.010311
      dyz     :     0.004672
      dx2y2   :     0.006906
      dxy     :     0.005527

 23 H s       :     0.772755  s :     0.772755

 24 H s       :     0.773170  s :     0.773170

 25 H s       :     0.779196  s :     0.779196

 26 H s       :     0.776670  s :     0.776670

 27 H s       :     0.779788  s :     0.779788

 28 H s       :     0.776286  s :     0.776286

 29 H s       :     0.776171  s :     0.776171

 30 H s       :     0.776954  s :     0.776954

 31 H s       :     0.780021  s :     0.780021

 32 H s       :     0.788589  s :     0.788589

 33 H s       :     0.776320  s :     0.776320

 34 H s       :     0.776501  s :     0.776501

 35 H s       :     0.792416  s :     0.792416

 36 H s       :     0.735245  s :     0.735245

 37 H s       :     0.735170  s :     0.735170

 38 H s       :     0.771569  s :     0.771569

 39 H s       :     0.780464  s :     0.780464

 40 H s       :     0.773010  s :     0.773010

 41 H s       :     0.771973  s :     0.771973

 42 H s       :     0.772147  s :     0.772147

 43 H s       :     0.778801  s :     0.778801

 44 H s       :     0.773241  s :     0.773241



                     *******************************
                     * LOEWDIN POPULATION ANALYSIS *
                     *******************************

----------------------
LOEWDIN ATOMIC CHARGES
----------------------
   0 C :   -0.501433
   1 C :   -0.251629
   2 C :   -0.486463
   3 C :   -0.486341
   4 C :   -0.103098
   5 C :   -0.199206
   6 C :   -0.161223
   7 C :   -0.132050
   8 C :   -0.139231
   9 C :   -0.198147
  10 C :    0.137673
  11 O :   -0.370200
  12 C :   -0.327838
  13 C :    0.133052
  14 O :   -0.379298
  15 C :   -0.149718
  16 C :   -0.134817
  17 C :   -0.184858
  18 C :    0.058624
  19 O :   -0.388510
  20 C :   -0.252459
  21 C :   -0.226153
  22 C :   -0.147903
  23 H :    0.206479
  24 H :    0.206421
  25 H :    0.205150
  26 H :    0.206325
  27 H :    0.203537
  28 H :    0.208378
  29 H :    0.208370
  30 H :    0.206211
  31 H :    0.203501
  32 H :    0.233397
  33 H :    0.243725
  34 H :    0.239613
  35 H :    0.232020
  36 H :    0.247449
  37 H :    0.247641
  38 H :    0.242028
  39 H :    0.238047
  40 H :    0.211379
  41 H :    0.209142
  42 H :    0.209121
  43 H :    0.238028
  44 H :    0.245264

-------------------------------
LOEWDIN REDUCED ORBITAL CHARGES
-------------------------------
  0 C s       :     2.995200  s :     2.995200
      pz      :     1.160131  p :     3.439621
      px      :     1.160706
      py      :     1.118785
      dz2     :     0.021794  d :     0.066612
      dxz     :     0.006758
      dyz     :     0.007807
      dx2y2   :     0.014970
      dxy     :     0.015283

  1 C s       :     2.873436  s :     2.873436
      pz      :     1.098236  p :     3.266102
      px      :     1.064843
      py      :     1.103023
      dz2     :     0.028933  d :     0.112091
      dxz     :     0.017002
      dyz     :     0.018257
      dx2y2   :     0.023583
      dxy     :     0.024317

  2 C s       :     2.997065  s :     2.997065
      pz      :     1.165581  p :     3.422939
      px      :     1.135717
      py      :     1.121641
      dz2     :     0.019361  d :     0.066460
      dxz     :     0.006338
      dyz     :     0.010362
      dx2y2   :     0.017692
      dxy     :     0.012706

  3 C s       :     2.996910  s :     2.996910
      pz      :     1.086478  p :     3.422962
      px      :     1.166785
      py      :     1.169699
      dz2     :     0.017269  d :     0.066468
      dxz     :     0.011610
      dyz     :     0.014250
      dx2y2   :     0.010742
      dxy     :     0.012597

  4 C s       :     2.868894  s :     2.868894
      pz      :     1.003242  p :     3.135633
      px      :     1.072609
      py      :     1.059782
      dz2     :     0.014555  d :     0.098571
      dxz     :     0.018467
      dyz     :     0.016537
      dx2y2   :     0.023544
      dxy     :     0.025468

  5 C s       :     2.892998  s :     2.892998
      pz      :     1.051198  p :     3.222294
      px      :     1.099369
      py      :     1.071727
      dz2     :     0.008789  d :     0.083913
      dxz     :     0.016401
      dyz     :     0.013949
      dx2y2   :     0.020563
      dxy     :     0.024211

  6 C s       :     2.895567  s :     2.895567
      pz      :     1.014908  p :     3.180380
      px      :     1.094969
      py      :     1.070503
      dz2     :     0.012641  d :     0.085276
      dxz     :     0.018718
      dyz     :     0.012260
      dx2y2   :     0.018534
      dxy     :     0.023123

  7 C s       :     2.848957  s :     2.848957
      pz      :     1.051026  p :     3.184904
      px      :     1.047314
      py      :     1.086564
      dz2     :     0.014039  d :     0.098189
      dxz     :     0.017565
      dyz     :     0.017444
      dx2y2   :     0.025972
      dxy     :     0.023169

  8 C s       :     2.897073  s :     2.897073
      pz      :     1.017970  p :     3.157133
      px      :     1.083705
      py      :     1.055459
      dz2     :     0.008451  d :     0.085024
      dxz     :     0.017567
      dyz     :     0.013712
      dx2y2   :     0.020958
      dxy     :     0.024336

  9 C s       :     2.892927  s :     2.892927
      pz      :     1.041040  p :     3.221078
      px      :     1.100137
      py      :     1.079902
      dz2     :     0.011190  d :     0.084142
      dxz     :     0.018597
      dyz     :     0.012296
      dx2y2   :     0.019827
      dxy     :     0.022232

 10 C s       :     2.834195  s :     2.834195
      pz      :     0.843465  p :     2.818885
      px      :     1.012087
      py      :     0.963333
      dz2     :     0.028556  d :     0.209247
      dxz     :     0.042019
      dyz     :     0.038764
      dx2y2   :     0.058391
      dxy     :     0.041516

 11 O s       :     3.561089  s :     3.561089
      pz      :     1.441268  p :     4.753871
      px      :     1.715769
      py      :     1.596833
      dz2     :     0.009917  d :     0.055240
      dxz     :     0.010347
      dyz     :     0.015109
      dx2y2   :     0.009177
      dxy     :     0.010690

 12 C s       :     2.934052  s :     2.934052
      pz      :     1.088199  p :     3.321540
      px      :     1.131908
      py      :     1.101433
      dz2     :     0.017221  d :     0.072246
      dxz     :     0.019261
      dyz     :     0.007732
      dx2y2   :     0.008239
      dxy     :     0.019792

 13 C s       :     2.832496  s :     2.832496
      pz      :     1.033431  p :     2.824770
      px      :     0.974937
      py      :     0.816403
      dz2     :     0.073539  d :     0.209681
      dxz     :     0.048733
      dyz     :     0.032988
      dx2y2   :     0.023822
      dxy     :     0.030600

 14 O s       :     3.561746  s :     3.561746
      pz      :     1.630518  p :     4.762569
      px      :     1.661878
      py      :     1.470172
      dz2     :     0.014759  d :     0.054982
      dxz     :     0.014594
      dyz     :     0.013400
      dx2y2   :     0.005613
      dxy     :     0.006617

 15 C s       :     2.846971  s :     2.846971
      pz      :     1.106748  p :     3.205132
      px      :     1.049532
      py      :     1.048852
      dz2     :     0.029363  d :     0.097616
      dxz     :     0.026958
      dyz     :     0.017777
      dx2y2   :     0.009346
      dxy     :     0.014173

 16 C s       :     2.897314  s :     2.897314
      pz      :     1.099933  p :     3.151694
      px      :     1.063845
      py      :     0.987916
      dz2     :     0.020081  d :     0.085809
      dxz     :     0.025982
      dyz     :     0.015300
      dx2y2   :     0.011270
      dxy     :     0.013177

 17 C s       :     2.895603  s :     2.895603
      pz      :     1.093041  p :     3.208240
      px      :     1.077984
      py      :     1.037215
      dz2     :     0.018739  d :     0.081016
      dxz     :     0.025899
      dyz     :     0.011975
      dx2y2   :     0.011566
      dxy     :     0.012836

 18 C s       :     2.814190  s :     2.814190
      pz      :     1.113632  p :     2.953475
      px      :     0.916548
      py      :     0.923294
      dz2     :     0.036010  d :     0.173711
      dxz     :     0.046166
      dyz     :     0.025709
      dx2y2   :     0.033700
      dxy     :     0.032125

 19 O s       :     3.480811  s :     3.480811
      pz      :     1.669944  p :     4.836699
      px      :     1.499880
      py      :     1.666874
      dz2     :     0.012461  d :     0.071001
      dxz     :     0.017643
      dyz     :     0.011554
      dx2y2   :     0.014243
      dxy     :     0.015100

 20 C s       :     2.963203  s :     2.963203
      pz      :     1.010566  p :     3.173659
      px      :     1.078652
      py      :     1.084441
      dz2     :     0.016094  d :     0.115596
      dxz     :     0.029660
      dyz     :     0.034721
      dx2y2   :     0.012419
      dxy     :     0.022703

 21 C s       :     2.891003  s :     2.891003
      pz      :     1.083418  p :     3.254367
      px      :     1.094698
      py      :     1.076251
      dz2     :     0.020317  d :     0.080783
      dxz     :     0.025861
      dyz     :     0.013525
      dx2y2   :     0.009115
      dxy     :     0.011965

 22 C s       :     2.896551  s :     2.896551
      pz      :     1.113629  p :     3.165075
      px      :     1.065610
      py      :     0.985835
      dz2     :     0.021834  d :     0.086277
      dxz     :     0.024090
      dyz     :     0.010834
      dx2y2   :     0.015134
      dxy     :     0.014384

 23 H s       :     0.793521  s :     0.793521

 24 H s       :     0.793579  s :     0.793579

 25 H s       :     0.794850  s :     0.794850

 26 H s       :     0.793675  s :     0.793675

 27 H s       :     0.796463  s :     0.796463

 28 H s       :     0.791622  s :     0.791622

 29 H s       :     0.791630  s :     0.791630

 30 H s       :     0.793789  s :     0.793789

 31 H s       :     0.796499  s :     0.796499

 32 H s       :     0.766603  s :     0.766603

 33 H s       :     0.756275  s :     0.756275

 34 H s       :     0.760387  s :     0.760387

 35 H s       :     0.767980  s :     0.767980

 36 H s       :     0.752551  s :     0.752551

 37 H s       :     0.752359  s :     0.752359

 38 H s       :     0.757972  s :     0.757972

 39 H s       :     0.761953  s :     0.761953

 40 H s       :     0.788621  s :     0.788621

 41 H s       :     0.790858  s :     0.790858

 42 H s       :     0.790879  s :     0.790879

 43 H s       :     0.761972  s :     0.761972

 44 H s       :     0.754736  s :     0.754736



                      *****************************
                      * MAYER POPULATION ANALYSIS *
                      *****************************

  NA   - Mulliken gross atomic population
  ZA   - Total nuclear charge
  QA   - Mulliken gross atomic charge
  VA   - Mayer's total valence
  BVA  - Mayer's bonded valence
  FA   - Mayer's free valence

  ATOM       NA         ZA         QA         VA         BVA        FA
  0 C      6.5759     6.0000    -0.5759     3.0632     3.0632    -0.0000
  1 C      5.5068     6.0000     0.4932     2.7298     2.7298     0.0000
  2 C      6.6823     6.0000    -0.6823     3.3794     3.3794     0.0000
  3 C      6.6787     6.0000    -0.6787     3.3761     3.3761    -0.0000
  4 C      5.9227     6.0000     0.0773     3.5096     3.5096    -0.0000
  5 C      6.9075     6.0000    -0.9075     3.4030     3.4030    -0.0000
  6 C      6.2604     6.0000    -0.2604     3.8705     3.8705     0.0000
[...]
  0-1A  ->  6-1A    4.469840   36051.7   277.4   0.024042855   0.21955   0.36580   0.11246   0.27036
  0-1A  ->  7-1A    4.613669   37211.8   268.7   0.479941918   4.24604  -1.90540  -0.74419   0.24831
  0-1A  ->  8-1A    4.670773   37672.3   265.4   0.030235417   0.26422  -0.43795  -0.26797   0.02473
  0-1A  ->  9-1A    4.916442   39653.8   252.2   0.081439212   0.67612   0.62673  -0.52752   0.07108
  0-1A  -> 10-1A    4.968223   40071.4   249.6   0.000165552   0.00136   0.01205  -0.01440  -0.03174
  0-1A  -> 11-1A    4.986470   40218.6   248.6   0.121134923   0.99156  -0.86035   0.42461  -0.26658
  0-1A  -> 12-1A    5.212036   42037.9   237.9   0.114088155   0.89346  -0.72311  -0.23592  -0.56117
  0-1A  -> 13-1A    5.615139   45289.2   220.8   0.001335601   0.00971   0.02005  -0.07571  -0.05979
  0-1A  -> 14-1A    5.646357   45540.9   219.6   0.185428935   1.34045   0.02615   0.27044   1.12545
  0-1A  -> 15-1A    5.769997   46538.2   214.9   0.002889866   0.02044   0.05722   0.02552  -0.12852
  0-1A  -> 16-1A    5.784141   46652.2   214.4   0.000465164   0.00328   0.00083  -0.00418  -0.05713
  0-1A  -> 17-1A    5.922219   47765.9   209.4   0.001009800   0.00696   0.04882  -0.05468   0.03983
  0-1A  -> 18-1A    5.926791   47802.8   209.2   0.007301882   0.05029  -0.14510   0.14443  -0.09151
  0-1A  -> 19-1A    5.933852   47859.8   208.9   0.001367629   0.00941  -0.09368  -0.02093  -0.01393
  0-1A  -> 20-1A    5.991482   48324.6   206.9   0.002764451   0.01883   0.01348   0.13087  -0.03903
  0-1A  -> 21-1A    6.067709   48939.4   204.3   0.152365740   1.02495  -0.37243  -0.66804  -0.66330
  0-1A  -> 22-1A    6.154283   49637.6   201.5   0.000091262   0.00061   0.02373   0.00313   0.00568

----------------------------------------------------------------------------------------------------
                     ABSORPTION SPECTRUM VIA TRANSITION VELOCITY DIPOLE MOMENTS    
----------------------------------------------------------------------------------------------------
     Transition      Energy     Energy  Wavelength fosc(P2)      P2        PX        PY        PZ   
                      (eV)      (cm-1)    (nm)                 (au**2)    (au)      (au)      (au)  
----------------------------------------------------------------------------------------------------
  0-1A  ->  1-1A    3.719140   29996.9   333.4   0.048584164   0.00996   0.09881   0.00474  -0.01323
  0-1A  ->  2-1A    3.893807   31405.7   318.4   0.025764683   0.00553   0.07048   0.01664  -0.01690
  0-1A  ->  3-1A    3.987906   32164.6   310.9   0.009747073   0.00214   0.04414  -0.01278   0.00558
  0-1A  ->  4-1A    4.301872   34696.9   288.2   0.038146104   0.00905  -0.09474   0.00549  -0.00640
  0-1A  ->  5-1A    4.390374   35410.8   282.4   0.095523305   0.02312   0.14946  -0.02792  -0.00086
  0-1A  ->  6-1A    4.469840   36051.7   277.4   0.004875309   0.00120  -0.03449   0.00070   0.00332
  0-1A  ->  7-1A    4.613669   37211.8   268.7   0.179278990   0.04559   0.20697   0.04388  -0.02885
  0-1A  ->  8-1A    4.670773   37672.3   265.4   0.007695355   0.00198   0.04317   0.00949  -0.00529
  0-1A  ->  9-1A    4.916442   39653.8   252.2   0.036117281   0.00979  -0.09176   0.03380  -0.01500
  0-1A  -> 10-1A    4.968223   40071.4   249.6   0.000176728   0.00005   0.00172   0.00419  -0.00528
  0-1A  -> 11-1A    4.986470   40218.6   248.6   0.067752724   0.01862   0.12839  -0.04373   0.01511
  0-1A  -> 12-1A    5.212036   42037.9   237.9   0.012753693   0.00366   0.05643  -0.00678   0.02082
  0-1A  -> 13-1A    5.615139   45289.2   220.8   0.000264911   0.00008  -0.00771   0.00475   0.00009
  0-1A  -> 14-1A    5.646357   45540.9   219.6   0.003005026   0.00094   0.01121  -0.00781  -0.02736
  0-1A  -> 15-1A    5.769997   46538.2   214.9   0.000823042   0.00026  -0.01088  -0.00410   0.01125
  0-1A  -> 16-1A    5.784141   46652.2   214.4   0.000099097   0.00003  -0.00057  -0.00229   0.00510
  0-1A  -> 17-1A    5.922219   47765.9   209.4   0.000895226   0.00029  -0.00786   0.01347  -0.00700
  0-1A  -> 18-1A    5.926791   47802.8   209.2   0.006104014   0.00199   0.02694  -0.03349   0.01213
  0-1A  -> 19-1A    5.933852   47859.8   208.9   0.000739086   0.00024   0.01544   0.00166  -0.00070
  0-1A  -> 20-1A    5.991482   48324.6   206.9   0.000764990   0.00025   0.00783  -0.01159   0.00754
  0-1A  -> 21-1A    6.067709   48939.4   204.3   0.008340597   0.00279   0.04931  -0.00911   0.01658
  0-1A  -> 22-1A    6.154283   49637.6   201.5   0.000097060   0.00003  -0.00515  -0.00188   0.00171

------------------------------------------------------------------------------------------
                     CD SPECTRUM VIA TRANSITION ELECTRIC DIPOLE MOMENTS    
------------------------------------------------------------------------------------------
     Transition      Energy     Energy  Wavelength    R        MX        MY        MZ   
                      (eV)      (cm-1)    (nm)   (1e40*cgs)   (au)      (au)      (au)  
------------------------------------------------------------------------------------------
  0-1A  ->  1-1A    3.719140   29996.9   333.4   76.69170   0.31174   0.30257   0.45786
  0-1A  ->  2-1A    3.893807   31405.7   318.4  -37.81413  -0.01052  -0.14897   0.05176
  0-1A  ->  3-1A    3.987906   32164.6   310.9   11.48813   0.05221  -0.00149   0.10033
  0-1A  ->  4-1A    4.301872   34696.9   288.2  -27.44023   0.02902  -0.06186  -0.13626
  0-1A  ->  5-1A    4.390374   35410.8   282.4   67.80604   0.08819   0.28177  -0.01378
  0-1A  ->  6-1A    4.469840   36051.7   277.4   26.46944  -0.14287   0.17976  -0.08914
  0-1A  ->  7-1A    4.613669   37211.8   268.7   43.54194   0.13298  -0.08163   0.40386
  0-1A  ->  8-1A    4.670773   37672.3   265.4    7.06603   0.04320  -0.00406   0.11507
  0-1A  ->  9-1A    4.916442   39653.8   252.2  -40.57850  -0.01470  -0.18271  -0.01545
  0-1A  -> 10-1A    4.968223   40071.4   249.6    0.97102  -0.06844   0.10545  -0.00895
  0-1A  -> 11-1A    4.986470   40218.6   248.6  -54.37017   0.05101   0.32637  -0.07741
  0-1A  -> 12-1A    5.212036   42037.9   237.9   43.65551   0.00212   0.14002   0.10340
  0-1A  -> 13-1A    5.615139   45289.2   220.8   -0.90781   0.01149  -0.00049  -0.02773
  0-1A  -> 14-1A    5.646357   45540.9   219.6    4.50794  -0.01510   0.18491  -0.05258
  0-1A  -> 15-1A    5.769997   46538.2   214.9    2.10270  -0.02930   0.04326   0.03025
  0-1A  -> 16-1A    5.784141   46652.2   214.4   -0.61390   0.01427   0.03396  -0.02507
  0-1A  -> 17-1A    5.922219   47765.9   209.4   -2.78246   0.03996  -0.01217   0.08250
  0-1A  -> 18-1A    5.926791   47802.8   209.2   -2.16726   0.01376  -0.08958  -0.21344
  0-1A  -> 19-1A    5.933852   47859.8   208.9   -0.26628  -0.01347   0.03057   0.00410
  0-1A  -> 20-1A    5.991482   48324.6   206.9   -5.17565  -0.00215   0.11211   0.09392
  0-1A  -> 21-1A    6.067709   48939.4   204.3   36.45543   0.02784   0.13562  -0.03565
  0-1A  -> 22-1A    6.154283   49637.6   201.5   -0.11292   0.01188  -0.01015  -0.00186

------------------------------------------------------------------------------------------
                     CD SPECTRUM VIA TRANSITION VELOCITY DIPOLE MOMENTS    
------------------------------------------------------------------------------------------
     Transition      Energy     Energy  Wavelength    R        MX        MY        MZ   
                      (eV)      (cm-1)    (nm)   (1e40*cgs)   (au)      (au)      (au)  
------------------------------------------------------------------------------------------
  0-1A  ->  1-1A    3.719140   29996.9   333.4   90.30607   0.31174   0.30257   0.45786
  0-1A  ->  2-1A    3.893807   31405.7   318.4  -13.49567  -0.01052  -0.14897   0.05176
  0-1A  ->  3-1A    3.987906   32164.6   310.9    9.27708   0.05221  -0.00149   0.10033
  0-1A  ->  4-1A    4.301872   34696.9   288.2   -6.61042   0.02902  -0.06186  -0.13626
  0-1A  ->  5-1A    4.390374   35410.8   282.4   15.56095   0.08819   0.28177  -0.01378
  0-1A  ->  6-1A    4.469840   36051.7   277.4   13.65786  -0.14287   0.17976  -0.08914
  0-1A  ->  7-1A    4.613669   37211.8   268.7   34.17547   0.13298  -0.08163   0.40386
  0-1A  ->  8-1A    4.670773   37672.3   265.4    3.34531   0.04320  -0.00406   0.11507
  0-1A  ->  9-1A    4.916442   39653.8   252.2  -11.99044  -0.01470  -0.18271  -0.01545
  0-1A  -> 10-1A    4.968223   40071.4   249.6    0.95864  -0.06844   0.10545  -0.00895
  0-1A  -> 11-1A    4.986470   40218.6   248.6  -22.87442   0.05101   0.32637  -0.07741
  0-1A  -> 12-1A    5.212036   42037.9   237.9    3.25660   0.00212   0.14002   0.10340
  0-1A  -> 13-1A    5.615139   45289.2   220.8   -0.21358   0.01149  -0.00049  -0.02773
  0-1A  -> 14-1A    5.646357   45540.9   219.6   -0.39533  -0.01510   0.18491  -0.05258
  0-1A  -> 15-1A    5.769997   46538.2   214.9    1.07140  -0.02930   0.04326   0.03025
  0-1A  -> 16-1A    5.784141   46652.2   214.4   -0.47432   0.01427   0.03396  -0.02507
  0-1A  -> 17-1A    5.922219   47765.9   209.4   -2.28575   0.03996  -0.01217   0.08250
  0-1A  -> 18-1A    5.926791   47802.8   209.2    1.69232   0.01376  -0.08958  -0.21344
  0-1A  -> 19-1A    5.933852   47859.8   208.9   -0.34641  -0.01347   0.03057   0.00410
  0-1A  -> 20-1A    5.991482   48324.6   206.9   -1.30196  -0.00215   0.11211   0.09392
  0-1A  -> 21-1A    6.067709   48939.4   204.3   -0.95920   0.02784   0.13562  -0.03565
  0-1A  -> 22-1A    6.154283   49637.6   201.5   -0.09421   0.01188  -0.01015  -0.00186

Total run time:      784.865 sec

           *** ORCA-CIS/TD-DFT FINISHED WITHOUT ERROR ***
-----------------------
CIS/TD-DFT TOTAL ENERGY
-----------------------

    E(SCF)  =  -1000.479500335 Eh
    DE(CIS) =      0.136675901 Eh (Root  1)
    ----------------------------- ---------
    E(tot)  =  -1000.342824434 Eh


Maximum memory used throughout the entire CIS-calculation: 906.1 MB
=> NOW LEAVING ORCA_CIS

-------------------------   --------------------
FINAL SINGLE POINT ENERGY     -1000.342824434377
-------------------------   --------------------



           ************************************************************
           *        Program running with 4 parallel MPI-processes     *
           *              working on a common directory               *
           ************************************************************

------------------------------------------------------------------------------
                              ORCA PROPERTY CALCULATIONS
------------------------------------------------------------------------------

GBWName                                 ... td.gbw
Number of atoms                         ...     45
Number of basis functions               ...    458
Max core memory                         ...   2500 MB

Electric properties:
Dipole moment                           ... YES
Quadrupole moment                       ...  NO
Static polarizability (Dipole/Dipole)   ...  NO
Static polarizability (Dipole/Quad.)    ...  NO
Static polarizability (Quad./Quad.)     ...  NO
Static polarizability (Velocity)        ...  NO
Static hyperpolarizability              ...  NO

Atomic electric properties:
Dipole moment                           ...  NO
Quadrupole moment                       ...  NO
Static polarizability                   ...  NO

Choice of electric origin               ... Center of mass
Position of electric origin             ...     1.161919    -0.316041     0.223549

General magnetic properties:
Magnetizability                         ...  NO

EPR properties:
g-Tensor (aka g-matrix)                 ...  NO
Zero-Field splitting spin-orbit         ...  NO
Zero-field splitting spin-spin          ...  NO
Hyperfine couplings                     ...  NO (   0 nuclei)
Quadrupole couplings                    ...  NO (   0 nuclei)
Contact density                         ...  NO (   0 nuclei)

NMR properties:
Chemical shifts                         ...  NO (   0 nuclei)
Spin-rotation constants                 ...  NO (   0 nuclei)
Spin-spin couplings                     ...  NO (   0 nuclei,    0 pairs)

Choice of magnetic origin               ... GIAO
Position of magnetic origin             ...     0.000000     0.000000     0.000000

Properties with geometric perturbations:
SCF Hessian                             ...  NO
IR spectrum                             ...  NO
VCD spectrum                            ...  NO
X-ray spectroscopy properties:
SCF XES/XAS/RIXS spectra                ...  NO

SCF SOC stabilization energy            ...  NO
Diagonal Born-Oppenheimer correction    ...  NO

-------------
DIPOLE MOMENT
-------------

Method             : SCF
Type of density    : Electron Density
Multiplicity       :   1
Irrep              :   0
Energy             : -1000.4795003350911884 Eh
Basis              : AO
                                X                 Y                 Z
Electronic contribution:     25.861229197      -6.791466848       2.143177157
Nuclear contribution   :    -25.672005244       7.454069920      -1.737094616
                        -----------------------------------------
Total Dipole Moment    :      0.189223953       0.662603071       0.406082542
                        -----------------------------------------
Magnitude (a.u.)       :      0.799844713
Magnitude (Debye)      :      2.033043692



--------------------
Rotational spectrum 
--------------------
 
Rotational constants in cm-1:             0.020626             0.003013             0.002967 
Rotational constants in MHz :           618.348684            90.338154            88.963233 

Dipole components along the rotational axes: 
x,y,z [a.u.] :    -0.153575     0.734366     0.277259 
x,y,z [Debye]:    -0.390357     1.866610     0.704736 

 

Dipole moment calculation done in   0.1 sec 

Maximum memory used throughout the entire PROP-calculation: 31.9 MB

--------------------------------
SUGGESTED CITATIONS FOR THIS RUN
--------------------------------

Below you find a list of papers that are relevant to this ORCA run
We neither can nor want to force you to cite these papers, but we appreciate if you do
You receive ORCA, which is the product of decades of hard work by many enthusiastic individuals, for free
The only thing we kindly ask in return is that you cite our papers,
We deeply appreciate it, if you show your appreciation for ORCA by not just citing the generic ORCA reference.

Please note that relegating all ORCA citations to the supporting information does *not* help us.
SI sections are not indexed - citations you put there will not count into any citation statistics
But we need these citations in order to attract the funding resources that allow us to do what we are doing

Therefore, if you are a happy ORCA user, please consider citing a few of the papers listed below in the main body of your paper

In addition to the list printed below, the program has created the file td.bibtex that contains the list in bibtex format
You can import this file easily into all common literature databanks and citation aid programs

It goes without saying that in many instances, there are alternative algorithms to achieve similar
results as the ones you have gotten from ORCA. It is, of course, also the case that in some instances
ORCA just re-implements algorithms worked out by others. We are fully aware of that and we are also
fully appreciative of our colleagues work. Hence this citation list should not be read as indicating
that the listed papers, which are focused on our own work, are the only ones worth citing. It simply
meant to make it easier for users to cite ORCA specific papers. It is not a substitute for doing your
own literature research and citing the relevant literature in a scientifically appropriate manner.

List of essential papers. We consider these as the minimum necessary citations

  1. Neese, F.
     Software update: the ORCA program system, version 6.0
     WIRES Comput. Molec. Sci. 2025 15(1), e70019
     doi.org/10.1002/wcms.70019

List of papers to cite with high priority. The work reported in these papers was absolutely
necessary for this run to complete.
Our perspective: the developers of density functionals and basis sets usually get cited in chemistry papers
Good! But without the algorithms to do something with them, the functionals or basis sets would not do anything.
Hence, in our opinion, the algorithm design and method developments papers are equally worthy of getting cited

  1. Neese, F.; Olbrich, G.
     Efficient use of the resolution of the identity approximation in time-dependent density functional calculations with hybrid density functionals
     Chem. Phys. Lett. 2002 362 , 170-178
     doi.org/10.1016/s0009-2614(02)01053-9
  2. Neese, F.
     An improvement of the resolution of the identity approximation for the formation of the Coulomb matrix
     J. Comp. Chem. 2003 24(14), 1740-1747
     doi.org/10.1002/jcc.10318
  3. Neese, F.; Wennmohs, F.; Hansen, A.; Becker, U.
     Efficient, approximate and parallel Hartree-Fock and hybrid DFT calculations. A 'chain-of-spheres' algorithm for the Hartree-Fock exchange
     Chem. Phys. 2009 356(1-3), 98-109
     doi.org/10.1016/j.chemphys.2008.10.036
  4. Garcia-Rates, M.; Neese, F.
     Effect of the Solute Cavity on the Solvation Energy and its Derivatives within the Framework of the Gaussian Charge Scheme
     J. Comput. Chem. 2020 41 , 922-939
     doi.org/10.1002/jcc.26139
  5. Helmich-Paris, B.; de Souza, B.; Neese, F.; Izsák, R.
     An improved chain of spheres for exchange algorithm
     J. Chem. Phys. 2021 155(10), 104109
     doi.org/10.1063/5.0058766
  6. Neese, F.
     The SHARK Integral Generation and Digestion System
     J. Comp. Chem. 2022 44(3), 381
     doi.org/10.1002/jcc.26942

List of suggested additional citations. These are papers that are important in the 'surrounding' of 
of this run, or papers that preceded the highly important papers. If you like your results we are grateful for a citation.

  1. Izsak, R.; Neese, F.
     An overlap fitted chain of spheres exchange method
     J. Chem. Phys. 2011 135 , 144105
     doi.org/10.1063/1.3646921
  2. Izsak, R.; Hansen, A.; Neese, F.
     The resolution of identity and chain of spheres approximations for the LPNO-CCSD singles Fock term
     Molec. Phys. 2012 110 , 2413-2417
     doi.org/10.1080/00268976.2012.687466
  3. Neese, F.
     The ORCA program system
     WIRES Comput. Molec. Sci. 2012 2(1), 73-78
     doi.org/10.1002/wcms.81
  4. Izsak, R.; Neese, F.; Klopper, W.
     Robust fitting techniques in the chain of spheres approximation to the Fock exchange: The role of the complementary space
     J. Chem. Phys. 2013 139 , 
     doi.org/10.1063/1.4819264
  5. Neese, F.
     Software update: the ORCA program system, version 4.0
     WIRES Comput. Molec. Sci. 2018 8(1), 1-6
     doi.org/10.1002/wcms.1327
  6. Neese, F.; Wennmohs, F.; Becker, U.; Riplinger, C.
     The ORCA quantum chemistry program package
     J. Chem. Phys. 2020 152(22), 224108
     doi.org/10.1063/5.0004608
  7. Neese, F.
     Software update: The ORCA program system—Version 5.0
     WIRES Comput. Molec. Sci. 2022 12(1), e1606
     doi.org/10.1002/wcms.1606

List of optional additional citations

  1. Neese, F.
     Approximate second-order SCF convergence for spin unrestricted wavefunctions
     Chem. Phys. Lett. 2000 325(1-3), 93-98
     doi.org/10.1016/s0009-2614(00)00662-x

Timings for individual modules:

Sum of individual times          ...     1121.269 sec (=  18.688 min)
Startup calculation              ...        6.263 sec (=   0.104 min)   0.6 %
SCF iterations                   ...      328.697 sec (=   5.478 min)  29.3 %
Property integrals               ...        0.670 sec (=   0.011 min)   0.1 %
Property calculations            ...        0.464 sec (=   0.008 min)   0.0 %
CIS module                       ...      785.175 sec (=  13.086 min)  70.0 %
                             ****ORCA TERMINATED NORMALLY****
TOTAL RUN TIME: 0 days 0 hours 18 minutes 42 seconds 188 msec
