
                                 *****************
                                 * O   R   C   A *
                                 *****************

                                            #,                                       
                                            ###                                      
                                            ####                                     
                                            #####                                    
                                            ######                                   
                                           ########,                                 
                                     ,,################,,,,,                         
                               ,,#################################,,                 
                          ,,##########################################,,             
                       ,#########################################, ''#####,          
                    ,#############################################,,   '####,        
                  ,##################################################,,,,####,       
                ,###########''''           ''''###############################       
              ,#####''   ,,,,##########,,,,          '''####'''          '####       
            ,##' ,,,,###########################,,,                        '##       
           ' ,,###''''                  '''############,,,                           
         ,,##''                                '''############,,,,        ,,,,,,###''
      ,#''                                            '''#######################'''  
     '                                                          ''''####''''         
             ,#######,   #######,   ,#######,      ##                                
            ,#'     '#,  ##    ##  ,#'     '#,    #''#        ,####,    ,#,          
            ##       ##  ##   ,#'  ##            #'  '#       #'       ,# #          
            ##       ##  #######   ##           ,######,      #####,      #          
            '#,     ,#'  ##    ##  '#,     ,#' ,#      #,     #,   #      #          
             '#######'   ##     ##  '#######'  #'      '#     '####' #    #          



                #########################################################
                #                        -***-                          #
                #          Department of theory and spectroscopy        #
                #                                                       #
                #                      Frank Neese                      #
                #                                                       #
                #     Directorship, Architecture, Infrastructure        #
                #                    SHARK, DRIVERS                     #
                #        Core code/Algorithms in most modules           #
                #                                                       #
                #        Max Planck Institute fuer Kohlenforschung      #
                #                Kaiser Wilhelm Platz 1                 #
                #                 D-45470 Muelheim/Ruhr                 #
                #                      Germany                          #
                #                                                       #
                #                  All rights reserved                  #
                #                        -***-                          #
                #########################################################


                         Program Version 6.1.1  -  RELEASE   -


 With contributions from (in alphabetic order):
[Max-Planck-Institut fuer Kohlenforschung]                               
  Daniel Aravena         : Magnetic Suceptibility                        
  Michael Atanasov       : Ab Initio Ligand Field Theory (pilot matlab implementation)
  Alexander A. Auer      : GIAO ZORA, VPT2 properties, NMR spectrum      
  Ute Becker             : All parallelization in ORCA, NUMFREQ, NUMCALC 
  Giovanni Bistoni       : ED, misc. LED, open-shell LED, HFLD           
  Dmytro Bykov           : pre 5.0 version of the SCF Hessian            
  Marcos Casanova-Páez   : Triplet and SCS-CIS(D). UHF-(DLPNO)-IP/EA/STEOM-CCSD. UHF-CVS-IP/STEOM-CCSD   
  Vijay G. Chilkuri      : MRCI spin determinant printing, contributions to CSF-ICE 
  Pauline Colinet        : FMM embedding                                 
  Dipayan Datta          : RHF DLPNO-CCSD density                        
  Achintya Kumar Dutta   : EOM-CC, STEOM-CC                              
  Nicolas Foglia         : Exact transition moments, OPA infrastructure, MCD improvements    
  Dmitry Ganyushin       : Spin-Orbit,Spin-Spin,Magnetic field MRCI      
  Miquel Garcia-Rates    : C-PCM and meta-GGA Hessian, CCSD/C-PCM, Gaussian charge scheme 
  Tiago L. C. Gouveia    : GS-ROHF, GS-ROCIS                             
  Yang Guo               : DLPNO-NEVPT2, F12-NEVPT2, CIM, IAO-localization        
  Andreas Hansen         : Spin unrestricted coupled pair/coupled cluster methods 
  Ingolf Harden          : AUTO-CI MPn and infrastructure                
  Benjamin Helmich-Paris : MC-RPA, TRAH-(SCF,CASSCF), AVAS, COSX integrals, SCF dyn. polar., MC-PDFT, srDFT 
  Lee Huntington         : MR-EOM, pCC                                   
  Robert Izsak           : Overlap fitted RIJCOSX, COSX-SCS-MP3, EOM     
  Riya Kayal             : Wick's Theorem for AUTO-CI, AUTO-CI UHF-CCSDT 
  Emily Kempfer          : AUTO-CI RHF CISDT and CCSDT, approximate NEVPT4
  Christian Kollmar      : KDIIS, OOCD, Brueckner-CCSD(T), CCSD density, CASPT2, CASPT2-K, improved NEVPT2 
  Axel Koslowski         : Symmetry handling                             
  Simone Kossmann        : meta-GGA functionals, TD-DFT gradient, OOMP2, (MP2 Hessian; deprecated post 5.0) 
  Lucas Lang             : DCDCAS, Hyperfine gauge corrections, ICE-SOC+SSC
  Marvin Lechner         : AUTO-CI (C++ implementation), FIC-MRCC        
  Spencer Leger          : CASSCF response                               
  Dagmar Lenk            : GEPOL surface, SMD, ORCA-2-JSON               
  Dimitrios Liakos       : Extrapolation schemes; Compound Job, Property file
  Dimitrios Manganas     : Further ROCIS development; embedding schemes. LFT, Crystal Embedding 
  Dimitrios Pantazis     : SARC Basis sets                               
  Anastasios Papadopoulos: AUTO-CI, single reference methods and gradients 
  Taras Petrenko         : pre 6.0 DFT Hessian and TD-DFT gradient,  ECA, NRVS 
  Petra Pikulova         : Analytic Raman intensities                    
  Peter Pinski           : DLPNO-MP2, DLPNO-MP2 Gradient                 
  Shashank Vittal Rao    : ES-AILFT, MagRelax                            
  Christoph Reimann      : Effective Core Potentials                     
  Marius Retegan         : Local ZFS, SOC                                
  Christoph Riplinger    : Optimizer, TS searches, QM/MM, DLPNO-CCSD(T), (RO)-DLPNO pert. Triples 
  Michael Roemelt        : Original ROCIS implementation, recursive CI coupling coefficients
  Masaaki Saitow         : Open-shell DLPNO-CCSD energy and density      
  Barbara Sandhoefer     : DKH picture change effects                    
  Yorick L. A. Schmerwitz: GMF and freeze-and-release deltaSCF, NEB S-IDPP initial path                    
  Kantharuban Sivalingam : CASSCF convergence/infrastructure, NEVPT2, NEVPT3, NEVPT4(SD), FIC-MRCI and CEPA variants
  Bernardo de Souza      : ESD, SOC TD-DFT                               
  Georgi L. Stoychev     : AutoAux, RI-MP2 NMR, DLPNO-MP2 response, X2C  
  Van Anh Tran           : RI-MP2 g-tensors                              
  Willem Van den Heuvel  : Paramagnetic NMR                              
  Zikuan Wang            : NOTCH, Electric field optimization            
  Frank Wennmohs         : Technical directorship and infrastructure     
  Hang Xu                : AUTO-CI-Response properties                   
                                                                         
[FACCTs GmbH]                                                            
  Markus Bursch, Nicolas Foglia, Miquel Garcia-Rates, Ingolf Harden, Hagen Neugebauer, Anastasios Papadopoulos, 
  Christoph Riplinger, Bernardo de Souza, Georgi L. Stoychev                                                    
                                                                 
  APM, various basis sets, CI-OPT, improved COSX, DLPNO-Multilevel,           
  DOCKER, DRACO, updates on ESD, Fragmentator, GOAT, IRC, LR-CPCM, L-BFGS, MBIS, meta-GGA TD-DFT gradient, ML-optimized integration grids, 
  MM, NACMEs, nearIR, NEB, NEB-TS, NL-DFT gradient (VV10), 2- and 3-layer-ONIOM, interface openCOSMO-RS, QMMM,   
  Crystal-QMMM, RESP, rigid body optimization, SF, symmetry and pop. for TD-DFT, various functionals, SOLVATOR                                   
                                                                         
[Other institutions]                                                     
  V. Asgeirsson          : NEB                                           
  Christoph Bannwarth    : sTDA-DFT, sTD-DFT, PBEh-3c, B97-3c, D3        
  Giovanni Bistoni       : ETS/NOCV, ADLD/ADEX, COVALED                  
  Martin Brehm           : Molecular dynamics                            
  Ronald Cardenas        : ETS/NOCV                                      
  Martina Colucci        : COVALED                                       
  Sebastian Ehlert       : rSCAN, r2SCAN, r2SCAN-3c, D4, dhf basis sets  
  Marvin Friede          : D4 for Fr, Ra, Ac-Lr                          
  Lars Goerigk           : TD-DFT with DH, B97 family of functionals     
  Stefan Grimme          : VdW corrections, initial TS optimization, DFT functionals, gCP, sTDA/sTD-DF 
  Waldemar Hujo          : DFT-NL                                        
  H. Jonsson             : NEB                                           
  Holger Kruse           : gCP                                           
  Marcel Mueller         : wB97X-3c, vDZP basis set                      
  Hagen Neugebauer       : wr2SCAN, Native XTB                           
  Gianluca Regni         : ADLD/ADEX                                     
  Tobias Risthaus        : pre 6.0 range-separated hybrid DFT and stability analysis
  Lukas Wittmann         : regularized MP2, r2SCAN double-hybrids, wr2SCAN        
                                                                         
We gratefully acknowledge several colleagues who have allowed us to      
interface, adapt or use parts of their codes:                            
  Ed Valeev, F. Pavosevic, A. Kumar             : LibInt (2-el integral package), F12 methods 
  Garnet Chan, S. Sharma, J. Yang, R. Olivares  : DMRG                   
  Ulf Ekstrom                                   : XCFun DFT Library      
  Mihaly Kallay                                 : mrcc  (arbitrary order and MRCC methods)
  Frank Weinhold                                : gennbo (NPA and NBO analysis)           
  Simon Mueller                                 : openCOSMO-RS                            
  Christopher J. Cramer and Donald G. Truhlar   : smd solvation model                     
  S Lehtola, MJT Oliveira, MAL Marques          : LibXC Library                           
  Liviu Ungur et al                             : ANISO software                          


 Your calculation uses the libint2 library for the computation of 2-el integrals
 For citations please refer to: http://libint.valeyev.net

 Your ORCA version has been built with support for libXC version: 7.0.0
 For citations please refer to: https://libxc.gitlab.io

 This ORCA versions uses:
   CBLAS   interface :  Fast vector & matrix operations
   LAPACKE interface :  Fast linear algebra routines
   Shared memory     :  Shared parallel matrices


  ***********************************
  * Starting time: Thu Jul 23 17:13:20 2026
  * Host name:     DESKTOP-19Q153E
  * Process ID:    43644
  * Working dir.:  C:\Users\ysm04\Documents\etc\uv_vis\molecules\dhhb\calculations\02_tddft_orca\dhhb\dhhb_c000\camb3lyp_631+gd\ethanol\dftopt
  ***********************************

NOTE: MaxCore=2500 MB was set to SCF,MP2,MDCI,CIPSI,MRCI,RASCI and CIS
      => If you want to overwrite this, your respective input block should be placed after the MaxCore statement
XCFun DFT library Copyright 2009-2010 Ulf Ekstrom and contributors.
See http://admol.org/xcfun for more information.
This is free software; see the source code for copying conditions.
There is ABSOLUTELY NO WARRANTY; not even for MERCHANTABILITY or FITNESS FOR A PARTICULAR PURPOSE.
For details see the documentation.
Scientific users of this library should cite U. Ekstrom, L. Visscher, R. Bast, A. J. Thorvaldsen and K. Ruud;
J.Chem.Theor.Comp. 2010, DOI: 10.1021/ct100117s
XCFun Version 0.99 

================================================================================

----- Orbital basis set information -----
Your calculation utilizes the basis: 6-31+G(d)
   H-He, Li-Ne : W. J. Hehre, R. Ditchfield and J.A. Pople, J. Chem. Phys. 56, 2257 (1972).
                 Note: He and Ne are unpublished basis sets taken from the Gaussian program.
                 Note: Li and B from J. D. Dill and J. A. Pople, J. Chem. Phys. 62, 2921 (1975).
   Na - Ar     : M. M. Francl, W. J. Pietro, W. J. Hehre, J. S. Binkley, M. S. Gordon, 
                 D. J. DeFrees and J. A. Pople, J. Chem. Phys. 77, 3654 (1982).
   K - Zn      : V. A. Rassolov, J. A. Pople, M. A. Ratner, and T. L. Windus, J. Chem. Phys. 109, 1223 (1998).
   Additional Pol./Diff. from the 6-311G equivalent.

----- AuxJ basis set information -----
Your calculation utilizes the auxiliary basis: def2/J
   H-Rn: F. Weigend, Phys. Chem. Chem. Phys. 8, 1057 (2006).
   Fr-Lr: K. Eichkorn, F. Weigend, O. Treutler, R. Ahlrichs; Theor. Chem. Acc. 97, 119 (1997).

================================================================================
                                        WARNINGS
                       Please study these warnings very carefully!
================================================================================


WARNING: CIS/ROCIS methods need fully converged wavefunctions
  ===> : Setting SCFConvForced true
         You can overwrite this default with %scf ConvForced false 


================================================================================
                                       INPUT FILE
================================================================================
NAME = td.inp
|  1> # dhhb / dhhb_c000 / camb3lyp_631+gd / solvent=ethanol
|  2> ! CAM-B3LYP 6-31+G(d) RIJCOSX def2/J TightSCF CPCM(Ethanol)
|  3> %pal nprocs 4 end
|  4> %maxcore 2500
|  5> %scf
|  6>   MaxIter 300
|  7> end
|  8> %tddft
|  9>   nroots 22
| 10>   tda    true
| 11>   maxdim 5
| 12> end
| 13> * xyz 0 1
| 14> C      9.5261718999     2.7208034759     1.6177301841
| 15> C      9.0445719823     1.8643892892     0.4446025321
| 16> C      7.5759498836     1.4424462878     0.5587394159
| 17> C      7.0854451892     0.5880402419    -0.6146714059
| 18> C      5.6154078525     0.1738224609    -0.4902197906
| 19> C      5.1473788697    -0.6622640989    -1.6751284784
| 20> O      3.7358992751    -0.9567656889    -1.5912222216
| 21> C      3.3500364032    -2.0557929160    -0.9294354029
| 22> O      4.1221350598    -2.8365206144    -0.4088989363
| 23> C      1.8626464350    -2.2174148461    -0.9042985597
| 24> C      1.3261214158    -3.3485501121    -0.2657130569
| 25> C     -0.0520000697    -3.5411344471    -0.2181274050
| 26> C     -0.9257801778    -2.5915742836    -0.7796338974
| 27> C     -0.3860450790    -1.4659784064    -1.4260739458
| 28> C      0.9964476435    -1.2831997924    -1.4942540720
| 29> C     -2.4022540883    -2.8778234502    -0.7491140265
| 30> O     -2.7562313872    -4.0411953310    -1.0503603848
| 31> C     -3.3704158548    -1.8631913765    -0.3775765391
| 32> C     -3.0323088009    -0.5806068434     0.1315658125
| 33> C     -3.9796269441     0.3577219274     0.4780670831
| 34> C     -5.3805474431     0.0779892540     0.3322947555
| 35> C     -5.7357545853    -1.2072473795    -0.1510999882
| 36> C     -4.7727857760    -2.1602866327    -0.4827198481
| 37> O     -5.1887023909    -3.3582145546    -0.9091782097
| 38> N     -6.3268769373     1.0068874550     0.6613051138
| 39> C     -5.9749375669     2.3649671658     1.0872360378
| 40> C     -5.7628059400     2.5068546763     2.5965244252
| 41> C     -7.7602083018     0.7063638677     0.6058303965
| 42> C     -8.3938802912     0.9556790056    -0.7654861283
| 43> H      9.4273112628     2.1802110501     2.5747826487
| 44> H     10.5849910079     3.0056543398     1.5035431798
| 45> H      8.9374892014     3.6504643525     1.7018963811
| 46> H      9.6760874905     0.9603890334     0.3632456488
| 47> H      9.1893089514     2.4189692834    -0.5010297611
| 48> H      6.9423180702     2.3456348366     0.6406551278
| 49> H      7.4291098850     0.8839457455     1.5023897532
| 50> H      7.7164171920    -0.3163889518    -0.6968918291
| 51> H      7.2298957116     1.1465958705    -1.5582476049
| 52> H      5.4679980051    -0.4037149249     0.4386605598
| 53> H      4.9766286386     1.0714428862    -0.4151078362
| 54> H      5.7072625615    -1.6065152375    -1.7423311045
| 55> H      5.2625787672    -0.1094282424    -2.6187732515
| 56> H      2.0048198913    -4.0742030314     0.1868659705
| 57> H     -0.4655438483    -4.4295183871     0.2641649135
| 58> H     -1.0456382418    -0.7376858687    -1.9019839628
| 59> H      1.4057798784    -0.4118989226    -2.0070864936
| 60> H     -1.9814731288    -0.3290408896     0.2828767319
| 61> H     -3.6449225385     1.3092994117     0.8864917756
| 62> H     -6.7753068956    -1.5011066268    -0.2850439699
| 63> H     -4.3596138802    -3.9025402101    -1.0466263633
| 64> H     -5.0831176096     2.7017945353     0.5389191307
| 65> H     -6.7921586217     3.0287790371     0.7644126995
| 66> H     -6.6649258010     2.2057725279     3.1533723642
| 67> H     -4.9228831346     1.8854507694     2.9453969502
| 68> H     -5.5408364444     3.5561465046     2.8504418400
| 69> H     -8.2545465113     1.3359323482     1.3619517925
| 70> H     -7.9284018355    -0.3333272572     0.9243131085
| 71> H     -8.2645382662     2.0051635433    -1.0760765842
| 72> H     -9.4745738651     0.7430688311    -0.7266329770
| 73> H     -7.9465661675     0.3121213436    -1.5392322973
| 74> *
| 75> 
| 76>                          ****END OF INPUT****
================================================================================

                       ****************************
                       * Single Point Calculation *
                       ****************************

---------------------------------
CARTESIAN COORDINATES (ANGSTROEM)
---------------------------------
  C      9.526172    2.720803    1.617730
  C      9.044572    1.864389    0.444603
  C      7.575950    1.442446    0.558739
  C      7.085445    0.588040   -0.614671
  C      5.615408    0.173822   -0.490220
  C      5.147379   -0.662264   -1.675128
  O      3.735899   -0.956766   -1.591222
  C      3.350036   -2.055793   -0.929435
  O      4.122135   -2.836521   -0.408899
  C      1.862646   -2.217415   -0.904299
  C      1.326121   -3.348550   -0.265713
  C     -0.052000   -3.541134   -0.218127
  C     -0.925780   -2.591574   -0.779634
  C     -0.386045   -1.465978   -1.426074
  C      0.996448   -1.283200   -1.494254
  C     -2.402254   -2.877823   -0.749114
  O     -2.756231   -4.041195   -1.050360
  C     -3.370416   -1.863191   -0.377577
  C     -3.032309   -0.580607    0.131566
  C     -3.979627    0.357722    0.478067
  C     -5.380547    0.077989    0.332295
  C     -5.735755   -1.207247   -0.151100
  C     -4.772786   -2.160287   -0.482720
  O     -5.188702   -3.358215   -0.909178
  N     -6.326877    1.006887    0.661305
  C     -5.974938    2.364967    1.087236
  C     -5.762806    2.506855    2.596524
  C     -7.760208    0.706364    0.605830
  C     -8.393880    0.955679   -0.765486
  H      9.427311    2.180211    2.574783
  H     10.584991    3.005654    1.503543
  H      8.937489    3.650464    1.701896
  H      9.676087    0.960389    0.363246
  H      9.189309    2.418969   -0.501030
  H      6.942318    2.345635    0.640655
  H      7.429110    0.883946    1.502390
  H      7.716417   -0.316389   -0.696892
  H      7.229896    1.146596   -1.558248
  H      5.467998   -0.403715    0.438661
  H      4.976629    1.071443   -0.415108
  H      5.707263   -1.606515   -1.742331
  H      5.262579   -0.109428   -2.618773
  H      2.004820   -4.074203    0.186866
  H     -0.465544   -4.429518    0.264165
  H     -1.045638   -0.737686   -1.901984
  H      1.405780   -0.411899   -2.007086
  H     -1.981473   -0.329041    0.282877
  H     -3.644923    1.309299    0.886492
  H     -6.775307   -1.501107   -0.285044
  H     -4.359614   -3.902540   -1.046626
  H     -5.083118    2.701795    0.538919
  H     -6.792159    3.028779    0.764413
  H     -6.664926    2.205773    3.153372
  H     -4.922883    1.885451    2.945397
  H     -5.540836    3.556147    2.850442
  H     -8.254547    1.335932    1.361952
  H     -7.928402   -0.333327    0.924313
  H     -8.264538    2.005164   -1.076077
  H     -9.474574    0.743069   -0.726633
  H     -7.946566    0.312121   -1.539232

----------------------------
CARTESIAN COORDINATES (A.U.)
----------------------------
  NO LB      ZA    FRAG     MASS         X           Y           Z
   0 C     6.0000    0    12.011   18.001856    5.141573    3.057067
   1 C     6.0000    0    12.011   17.091764    3.523185    0.840177
   2 C     6.0000    0    12.011   14.316470    2.725828    1.055864
   3 C     6.0000    0    12.011   13.389551    1.111235   -1.161561
   4 C     6.0000    0    12.011   10.611583    0.328477   -0.926381
   5 C     6.0000    0    12.011    9.727136   -1.251498   -3.165534
   6 O     8.0000    0    15.999    7.059826   -1.808025   -3.006974
   7 C     6.0000    0    12.011    6.330651   -3.884886   -1.756378
   8 O     8.0000    0    15.999    7.789706   -5.360247   -0.772707
   9 C     6.0000    0    12.011    3.519892   -4.190307   -1.708877
  10 C     6.0000    0    12.011    2.506006   -6.327843   -0.502125
  11 C     6.0000    0    12.011   -0.098266   -6.691774   -0.412201
  12 C     6.0000    0    12.011   -1.749471   -4.897366   -1.473295
  13 C     6.0000    0    12.011   -0.729519   -2.770298   -2.694889
  14 C     6.0000    0    12.011    1.883013   -2.424896   -2.823731
  15 C     6.0000    0    12.011   -4.539602   -5.438298   -1.415620
  16 O     8.0000    0    15.999   -5.208522   -7.636752   -1.984893
  17 C     6.0000    0    12.011   -6.369163   -3.520921   -0.713516
  18 C     6.0000    0    12.011   -5.730233   -1.097188    0.248623
  19 C     6.0000    0    12.011   -7.520405    0.675996    0.903416
  20 C     6.0000    0    12.011  -10.167761    0.147378    0.627946
  21 C     6.0000    0    12.011  -10.839005   -2.281367   -0.285538
  22 C     6.0000    0    12.011   -9.019258   -4.082350   -0.912208
  23 O     8.0000    0    15.999   -9.805227   -6.346106   -1.718098
  24 N     7.0000    0    14.007  -11.956065    1.902742    1.249686
  25 C     6.0000    0    12.011  -11.290996    4.469140    2.054578
  26 C     6.0000    0    12.011  -10.890125    4.737269    4.906720
  27 C     6.0000    0    12.011  -14.664668    1.334834    1.144854
  28 C     6.0000    0    12.011  -15.862135    1.805972   -1.446559
  29 H     1.0000    0     1.008   17.815036    4.120002    4.865634
  30 H     1.0000    0     1.008   20.002734    5.679864    2.841285
  31 H     1.0000    0     1.008   16.889407    6.898378    3.216118
  32 H     1.0000    0     1.008   18.285155    1.814872    0.686435
  33 H     1.0000    0     1.008   17.365277    4.571189   -0.946809
  34 H     1.0000    0     1.008   13.119080    4.432607    1.210663
  35 H     1.0000    0     1.008   14.038983    1.670415    2.839105
  36 H     1.0000    0     1.008   14.581915   -0.597888   -1.316935
  37 H     1.0000    0     1.008   13.662523    2.166752   -2.944661
  38 H     1.0000    0     1.008   10.333019   -0.762911    0.828948
  39 H     1.0000    0     1.008    9.404465    2.024734   -0.784440
  40 H     1.0000    0     1.008   10.785163   -3.035874   -3.292529
  41 H     1.0000    0     1.008    9.944833   -0.206789   -4.948764
  42 H     1.0000    0     1.008    3.788561   -7.699128    0.353126
  43 H     1.0000    0     1.008   -0.879750   -8.370577    0.499199
  44 H     1.0000    0     1.008   -1.975970   -1.394024   -3.594229
  45 H     1.0000    0     1.008    2.656539   -0.778376   -3.792844
  46 H     1.0000    0     1.008   -3.744442   -0.621797    0.534560
  47 H     1.0000    0     1.008   -6.887905    2.474217    1.675227
  48 H     1.0000    0     1.008  -12.803475   -2.836680   -0.538655
  49 H     1.0000    0     1.008   -8.238476   -7.374732   -1.977837
  50 H     1.0000    0     1.008   -9.605700    5.105652    1.018410
  51 H     1.0000    0     1.008  -12.835320    5.723563    1.444531
  52 H     1.0000    0     1.008  -12.594884    4.168306    5.959010
  53 H     1.0000    0     1.008   -9.302901    3.562986    5.565994
  54 H     1.0000    0     1.008  -10.470663    6.720143    5.386554
  55 H     1.0000    0     1.008  -15.598832    2.524546    2.573716
  56 H     1.0000    0     1.008  -14.982508   -0.629897    1.746699
  57 H     1.0000    0     1.008  -15.617714    3.789210   -2.033490
  58 H     1.0000    0     1.008  -17.904350    1.404197   -1.373137
  59 H     1.0000    0     1.008  -15.016834    0.589824   -2.908727

--------------------------------
INTERNAL COORDINATES (ANGSTROEM)
--------------------------------
 C      0   0   0     0.000000000000     0.00000000     0.00000000
 C      1   0   0     1.530232736449     0.00000000     0.00000000
 C      2   1   0     1.532290440310   113.49408098     0.00000000
 C      3   2   1     1.532154529810   113.78777412   179.82616328
 C      4   3   2     1.532342763855   113.30747633   180.07156068
 C      5   4   3     1.523843975820   112.32197694   179.40601432
 O      6   5   4     1.444315094574   111.52194886   184.39959313
 C      7   6   5     1.339668912539   118.51935889   271.45107782
 O      8   7   6     1.215166773588   123.75746860   358.83412473
 C      8   7   6     1.496356383579   112.53264278   178.94834620
 C     10   8   7     1.405388747145   118.29692210   178.60398345
 C     11  10   8     1.392326092965   120.31302084   180.03449299
 C     12  11  10     1.407283099602   120.50393479   358.47354176
 C     13  12  11     1.405761285504   119.03612157     1.95762560
 C     14  13  12     1.396188625906   120.49456241   359.13317684
 C     13  12  11     1.504275658344   118.22466952   177.55675342
 O     16  13  12     1.252790257610   116.68972298   316.14153445
 C     16  13  12     1.450812033186   121.81012531   135.57776161
 C     18  16  13     1.420762259717   124.35390183   352.48297053
 C     19  18  16     1.377655863078   122.77605736   180.19431560
 C     20  19  18     1.435993796846   120.83874236   359.74633161
 C     21  20  19     1.418335572492   117.09327892     1.38890919
 C     22  21  20     1.394834928336   121.82150572   359.51241831
 O     23  22  21     1.337865714785   118.22619565   178.81703000
 N     21  20  19     1.366250048594   121.25456227   180.62921407
 C     25  21  20     1.466171536125   122.23949140     4.45472662
 C     26  25  21     1.530713339952   113.92653281   270.88031566
 C     25  21  20     1.465547908205   121.93039047   184.26841791
 C     28  25  21     1.531080415695   113.90906369   272.41240773
 H      1   2   3     1.103613617349   111.25299384    59.80777212
 H      1   2   3     1.102395840922   111.56070284   179.98001220
 H      1   2   3     1.103585345006   111.22591858   300.14426745
 H      2   1   3     1.105733802524   109.52484584   237.76976099
 H      2   1   3     1.105770407514   109.49504169   122.16997023
 H      3   2   1     1.106322291872   109.24739688    57.53036255
 H      3   2   1     1.106327618757   109.25417315   302.17624890
 H      4   3   2     1.105838158469   109.29060925    57.78279954
 H      4   3   2     1.105977570741   109.26595077   302.24623160
 H      5   4   3     1.103674680541   109.75134868   300.88603603
 H      5   4   3     1.104265872750   109.92181742    58.19817572
 H      6   5   4     1.099816418338   111.23662431    62.44849940
 H      6   5   4     1.099710852186   111.05306666   300.83581753
 H     11  10   8     1.091801976540   119.07638187   359.74005515
 H     12  11  10     1.092176891420   120.15759414   178.97426926
 H     14  13  12     1.091770811646   120.17345199   177.61687963
 H     15  14  13     1.090740655191   119.94263324   179.36285292
 H     19  18  16     1.091071048648   119.14630087   358.51262940
 H     20  19  18     1.088272703507   118.58496566   178.38887010
 H     22  21  20     1.088560174408   121.71676316   179.65471191
 H     24  23  22     1.001284261705   105.84911952   182.82185834
 H     26  25  21     1.099748582038   109.48201859    35.21939623
 H     26  25  21     1.101231747017   107.16092850   149.43100372
 H     27  26  25     1.102066391314   111.06579709   301.72537173
 H     27  26  25     1.101510405417   111.44878563    62.27445462
 H     27  26  25     1.102160537967   110.07892856   182.19843669
 H     28  25  21     1.101111394228   107.20785237   150.93207296
 H     28  25  21     1.100308110402   109.40878449    36.60239622
 H     29  28  25     1.102095089182   111.03277630   301.42143798
 H     29  28  25     1.102094031531   110.05043012   181.92058902
 H     29  28  25     1.101335336590   111.46879213    62.02027242

---------------------------
INTERNAL COORDINATES (A.U.)
---------------------------
 C      0   0   0     0.000000000000     0.00000000     0.00000000
 C      1   0   0     2.891720793050     0.00000000     0.00000000
 C      2   1   0     2.895609289811   113.49408098     0.00000000
 C      3   2   1     2.895352456187   113.78777412   179.82616328
 C      4   3   2     2.895708166982   113.30747633   180.07156068
 C      5   4   3     2.879647785126   112.32197694   179.40601432
 O      6   5   4     2.729359979834   111.52194886   184.39959313
 C      7   6   5     2.531607354827   118.51935889   271.45107782
 O      8   7   6     2.296332409123   123.75746860   358.83412473
 C      8   7   6     2.827703763709   112.53264278   178.94834620
 C     10   8   7     2.655799843799   118.29692210   178.60398345
 C     11  10   8     2.631115004816   120.31302084   180.03449299
 C     12  11  10     2.659379651143   120.50393479   358.47354176
 C     13  12  11     2.656503839272   119.03612157     1.95762560
 C     14  13  12     2.638414134259   120.49456241   359.13317684
 C     13  12  11     2.842669024194   118.22466952   177.55675342
 O     16  13  12     2.367430490127   116.68972298   316.14153445
 C     16  13  12     2.741637414519   121.81012531   135.57776161
 C     18  16  13     2.684851572277   124.35390183   352.48297053
 C     19  18  16     2.603392288009   122.77605736   180.19431560
 C     20  19  18     2.713635006048   120.83874236   359.74633161
 C     21  20  19     2.680265798009   117.09327892     1.38890919
 C     22  21  20     2.635856016582   121.82150572   359.51241831
 O     23  22  21     2.528199804906   118.22619565   178.81703000
 N     21  20  19     2.581838422299   121.25456227   180.62921407
 C     25  21  20     2.770662668627   122.23949140     4.45472662
 C     26  25  21     2.892629002050   113.92653281   270.88031566
 C     25  21  20     2.769484182648   121.93039047   184.26841791
 C     28  25  21     2.893322674674   113.90906369   272.41240773
 H      1   2   3     2.085527494455   111.25299384    59.80777212
 H      1   2   3     2.083226230516   111.56070284   179.98001220
 H      1   2   3     2.085474067470   111.22591858   300.14426745
 H      2   1   3     2.089534063789   109.52484584   237.76976099
 H      2   1   3     2.089603237196   109.49504169   122.16997023
 H      3   2   1     2.090646147489   109.24739688    57.53036255
 H      3   2   1     2.090656213844   109.25417315   302.17624890
 H      4   3   2     2.089731267946   109.29060925    57.78279954
 H      4   3   2     2.089994718960   109.26595077   302.24623160
 H      5   4   3     2.085642887165   109.75134868   300.88603603
 H      5   4   3     2.086760078533   109.92181742    58.19817572
 H      6   5   4     2.078351828249   111.23662431    62.44849940
 H      6   5   4     2.078152337132   111.05306666   300.83581753
 H     11  10   8     2.063206728135   119.07638187   359.74005515
 H     12  11  10     2.063915214582   120.15759414   178.97426926
 H     14  13  12     2.063147835021   120.17345199   177.61687963
 H     15  14  13     2.061201121445   119.94263324   179.36285292
 H     19  18  16     2.061825474596   119.14630087   358.51262940
 H     20  19  18     2.056537368650   118.58496566   178.38887010
 H     22  21  20     2.057080609925   121.71676316   179.65471191
 H     24  23  22     1.892153036828   105.84911952   182.82185834
 H     26  25  21     2.078223636220   109.48201859    35.21939623
 H     26  25  21     2.081026411842   107.16092850   149.43100372
 H     27  26  25     2.082603660983   111.06579709   301.72537173
 H     27  26  25     2.081552999902   111.44878563    62.27445462
 H     27  26  25     2.082781572374   110.07892856   182.19843669
 H     28  25  21     2.080798978032   107.20785237   150.93207296
 H     28  25  21     2.079280991593   109.40878449    36.60239622
 H     29  28  25     2.082657892093   111.03277630   301.42143798
 H     29  28  25     2.082655893422   110.05043012   181.92058902
 H     29  28  25     2.081222167766   111.46879213    62.02027242

---------------------
BASIS SET INFORMATION
---------------------
There are 4 groups of distinct atoms

 Group   1 Type C   : 11s5p1d contracted to 4s3p1d pattern {6311/311/1}
 Group   2 Type O   : 11s5p1d contracted to 4s3p1d pattern {6311/311/1}
 Group   3 Type N   : 11s5p1d contracted to 4s3p1d pattern {6311/311/1}
 Group   4 Type H   : 4s contracted to 2s pattern {31}

Atom   0C    basis set group =>   1
Atom   1C    basis set group =>   1
Atom   2C    basis set group =>   1
Atom   3C    basis set group =>   1
Atom   4C    basis set group =>   1
Atom   5C    basis set group =>   1
Atom   6O    basis set group =>   2
Atom   7C    basis set group =>   1
Atom   8O    basis set group =>   2
Atom   9C    basis set group =>   1
Atom  10C    basis set group =>   1
Atom  11C    basis set group =>   1
Atom  12C    basis set group =>   1
Atom  13C    basis set group =>   1
Atom  14C    basis set group =>   1
Atom  15C    basis set group =>   1
Atom  16O    basis set group =>   2
Atom  17C    basis set group =>   1
Atom  18C    basis set group =>   1
Atom  19C    basis set group =>   1
Atom  20C    basis set group =>   1
Atom  21C    basis set group =>   1
Atom  22C    basis set group =>   1
Atom  23O    basis set group =>   2
Atom  24N    basis set group =>   3
Atom  25C    basis set group =>   1
Atom  26C    basis set group =>   1
Atom  27C    basis set group =>   1
Atom  28C    basis set group =>   1
Atom  29H    basis set group =>   4
Atom  30H    basis set group =>   4
Atom  31H    basis set group =>   4
Atom  32H    basis set group =>   4
Atom  33H    basis set group =>   4
Atom  34H    basis set group =>   4
Atom  35H    basis set group =>   4
Atom  36H    basis set group =>   4
Atom  37H    basis set group =>   4
Atom  38H    basis set group =>   4
Atom  39H    basis set group =>   4
Atom  40H    basis set group =>   4
Atom  41H    basis set group =>   4
Atom  42H    basis set group =>   4
Atom  43H    basis set group =>   4
Atom  44H    basis set group =>   4
Atom  45H    basis set group =>   4
Atom  46H    basis set group =>   4
Atom  47H    basis set group =>   4
Atom  48H    basis set group =>   4
Atom  49H    basis set group =>   4
Atom  50H    basis set group =>   4
Atom  51H    basis set group =>   4
Atom  52H    basis set group =>   4
Atom  53H    basis set group =>   4
Atom  54H    basis set group =>   4
Atom  55H    basis set group =>   4
Atom  56H    basis set group =>   4
Atom  57H    basis set group =>   4
Atom  58H    basis set group =>   4
Atom  59H    basis set group =>   4
---------------------------------
AUXILIARY/J BASIS SET INFORMATION
---------------------------------
There are 4 groups of distinct atoms

 Group   1 Type C   : 12s5p4d2f1g contracted to 6s4p3d1f1g pattern {711111/2111/211/2/1}
 Group   2 Type O   : 12s5p4d2f1g contracted to 6s4p3d1f1g pattern {711111/2111/211/2/1}
 Group   3 Type N   : 12s5p4d2f1g contracted to 6s4p3d1f1g pattern {711111/2111/211/2/1}
 Group   4 Type H   : 5s2p1d contracted to 3s1p1d pattern {311/2/1}

Atom   0C    basis set group =>   1
Atom   1C    basis set group =>   1
Atom   2C    basis set group =>   1
Atom   3C    basis set group =>   1
Atom   4C    basis set group =>   1
Atom   5C    basis set group =>   1
Atom   6O    basis set group =>   2
Atom   7C    basis set group =>   1
Atom   8O    basis set group =>   2
Atom   9C    basis set group =>   1
Atom  10C    basis set group =>   1
Atom  11C    basis set group =>   1
Atom  12C    basis set group =>   1
Atom  13C    basis set group =>   1
Atom  14C    basis set group =>   1
Atom  15C    basis set group =>   1
Atom  16O    basis set group =>   2
Atom  17C    basis set group =>   1
Atom  18C    basis set group =>   1
Atom  19C    basis set group =>   1
Atom  20C    basis set group =>   1
Atom  21C    basis set group =>   1
Atom  22C    basis set group =>   1
Atom  23O    basis set group =>   2
Atom  24N    basis set group =>   3
Atom  25C    basis set group =>   1
Atom  26C    basis set group =>   1
Atom  27C    basis set group =>   1
Atom  28C    basis set group =>   1
Atom  29H    basis set group =>   4
Atom  30H    basis set group =>   4
Atom  31H    basis set group =>   4
Atom  32H    basis set group =>   4
Atom  33H    basis set group =>   4
Atom  34H    basis set group =>   4
Atom  35H    basis set group =>   4
Atom  36H    basis set group =>   4
Atom  37H    basis set group =>   4
Atom  38H    basis set group =>   4
Atom  39H    basis set group =>   4
Atom  40H    basis set group =>   4
Atom  41H    basis set group =>   4
Atom  42H    basis set group =>   4
Atom  43H    basis set group =>   4
Atom  44H    basis set group =>   4
Atom  45H    basis set group =>   4
Atom  46H    basis set group =>   4
Atom  47H    basis set group =>   4
Atom  48H    basis set group =>   4
Atom  49H    basis set group =>   4
Atom  50H    basis set group =>   4
Atom  51H    basis set group =>   4
Atom  52H    basis set group =>   4
Atom  53H    basis set group =>   4
Atom  54H    basis set group =>   4
Atom  55H    basis set group =>   4
Atom  56H    basis set group =>   4
Atom  57H    basis set group =>   4
Atom  58H    basis set group =>   4
Atom  59H    basis set group =>   4


           ************************************************************
           *        Program running with 4 parallel MPI-processes     *
           *              working on a common directory               *
           ************************************************************
------------------------------------------------------------------------------
                             ORCA STARTUP CALCULATIONS
                           -- RI-GTO INTEGRALS CHOSEN --
------------------------------------------------------------------------------
------------------------------------------------------------------------------
                   ___                                                        
                  /   \      - P O W E R E D   B Y -                         
                 /     \                                                     
                 |  |  |   _    _      __       _____    __    __             
                 |  |  |  | |  | |    /  \     |  _  \  |  |  /  |          
                  \  \/   | |  | |   /    \    | | | |  |  | /  /          
                 / \  \   | |__| |  /  /\  \   | |_| |  |  |/  /          
                |  |  |   |  __  | /  /__\  \  |    /   |      \           
                |  |  |   | |  | | |   __   |  |    \   |  |\   \          
                \     /   | |  | | |  |  |  |  | |\  \  |  | \   \       
                 \___/    |_|  |_| |__|  |__|  |_| \__\ |__|  \__/        
                                                                              
                      - O R C A' S   B I G   F R I E N D -                    
                                      &                                       
                       - I N T E G R A L  F E E D E R -                       
                                                                              
 v1 FN, 2020, v2 2021, v3 2022-2024                                           
------------------------------------------------------------------------------


----------------------
SHARK INTEGRAL PACKAGE
----------------------

Number of atoms                             ...     60
Number of basis functions                   ...    584
Number of shells                            ...    294
Maximum angular momentum                    ...      2
Integral batch strategy                     ... SHARK/LIBINT Hybrid
RI-J (if used) integral strategy            ... SPLIT-RIJ (Revised 2003 algorithm where possible)
Printlevel                                  ...      1
Contraction scheme used                     ... SEGMENTED contraction
Prescreening option                         ... SCHWARTZ
   Thresh                                   ... 2.500e-11
   Tcut                                     ... 2.500e-12
   Tpresel                                  ... 2.500e-12 
Coulomb Range Separation                    ... NOT USED
Exchange Range Separation                   ... Long Range
   Mu parameter                             ... 3.300e-01
   Scaling (regular/separated)              ... 1.900e-01 4.600e-01
Robust (split-)RI terms used:
  metric    (central integrals)             ... YES
  density   (r.h.s.  integrals)             ... YES
  potential (l.h.s.  integrals)             ... YES
Multipole approximations                    ... NOT USED
Finite Nucleus Model                        ... NOT USED
CABS basis                                  ... NOT available
Auxiliary Coulomb fitting basis             ... AVAILABLE
   # of basis functions in Aux-J            ...   1762
   # of shells in Aux-J                     ...    590
   Maximum angular momentum in Aux-J        ...      4
Auxiliary J/K fitting basis                 ... NOT available
Auxiliary Correlation fitting basis         ... NOT available
Auxiliary 'external' fitting basis          ... NOT available

Checking pre-screening integrals            ... done (  0.0 sec) Dimension = 294
   => SHARK Basis and OBASIS are compatible. Storing Pre-screening
Shell pair information
Shell pair cut-off parameter TPreSel        ...   2.5e-12
Total number of shell pairs                 ...     43365
Shell pairs after pre-screening             ...     27081
Total number of primitive shell pairs       ...    191355
Primitive shell pairs kept                  ...     70759
          la=0 lb=0:   9047 shell pairs
          la=1 lb=0:  10655 shell pairs
          la=1 lb=1:   3056 shell pairs
          la=2 lb=0:   2512 shell pairs
          la=2 lb=1:   1633 shell pairs
          la=2 lb=2:    178 shell pairs

Checking whether 4 symmetric matrices of dimension 584 fit in memory
:Max Core in MB      =   2500.00
 MB in use           =     30.38
 MB left             =   2469.62
 MB needed           =      5.21
 Data fit in memory  = YES
Calculating RI/J V-Matrix + Cholesky decomp.... done (  0.3 sec)
Calculating Nuclear repulsion               ... done (  0.0 sec) ENN=   2505.210474003070 Eh

Diagonalization of the overlap matrix:
Smallest eigenvalue                        ... 1.799e-07
Time for diagonalization                   ...    0.081 sec
Threshold for overlap eigenvalues          ... 1.000e-07
Number of eigenvalues below threshold      ... 0

IMPORTANT:
Smallest eigenvalue of S below the DiffSThresh (1.000e-06) while
Thresh>1e-12 and/or TCut>1e-13! In order to avoid SCF convergence issues,
Thresh will be set to at least 1e-12 and TCut to at least 1e-13.
This can be turned off by adding %SCF DiffSThresh -1 END to the input.

Time for construction of square roots      ...    0.053 sec
Total time needed                          ...    0.138 sec

-------------------
DFT GRID GENERATION
-------------------

General Integration Accuracy     IntAcc      ... 4.388
Radial Grid Type                 RadialGrid  ... OptM3 with GC (2021)
Angular Grid (max. ang.)         AngularGrid ... 4 (Lebedev-302)
Angular grid pruning method      GridPruning ... 4 (adaptive)
Weight generation scheme         WeightScheme... mBecke (2022)
Basis function cutoff            BFCut       ... 1.0000e-11
Integration weight cutoff        WCut        ... 1.0000e-14
Partially contracted basis set               ... off
Rotationally invariant grid construction     ... off
Angular grids for H and He will be reduced by one unit
Diffuse basis detected: some atoms will have their outermost
                        angular grid increased by 1.

Total number of grid points                  ...   279166
Total number of batches                      ...     4389
Average number of points per batch           ...       63
Average number of grid points per atom       ...     4653

--------------------
COSX GRID GENERATION
--------------------

GRIDX 1
-------
General Integration Accuracy     IntAcc      ... 3.816
Radial Grid Type                 RadialGrid  ... OptM3 with GC (2021)
Angular Grid (max. ang.)         AngularGrid ... 1 (Lebedev-50)
Angular grid pruning method      GridPruning ... 4 (adaptive)
Weight generation scheme         WeightScheme... mBecke (2022)
Basis function cutoff            BFCut       ... 1.0000e-11
Integration weight cutoff        WCut        ... 1.0000e-14
Partially contracted basis set               ... on
Rotationally invariant grid construction     ... off
Angular grids for H and He will be reduced by one unit
Diffuse basis detected: some atoms will have their outermost
                        angular grid increased by 1.

Total number of grid points                  ...    35612
Total number of batches                      ...      317
Average number of points per batch           ...      112
Average number of grid points per atom       ...      594
UseSFitting                                  ... on

GRIDX 2
-------
General Integration Accuracy     IntAcc      ... 4.020
Radial Grid Type                 RadialGrid  ... OptM3 with GC (2021)
Angular Grid (max. ang.)         AngularGrid ... 2 (Lebedev-110)
Angular grid pruning method      GridPruning ... 4 (adaptive)
Weight generation scheme         WeightScheme... mBecke (2022)
Basis function cutoff            BFCut       ... 1.0000e-11
Integration weight cutoff        WCut        ... 1.0000e-14
Partially contracted basis set               ... on
Rotationally invariant grid construction     ... off
Angular grids for H and He will be reduced by one unit
Diffuse basis detected: some atoms will have their outermost
                        angular grid increased by 1.

Total number of grid points                  ...    81213
Total number of batches                      ...      667
Average number of points per batch           ...      121
Average number of grid points per atom       ...     1354
UseSFitting                                  ... on

GRIDX 3
-------
General Integration Accuracy     IntAcc      ... 4.338
Radial Grid Type                 RadialGrid  ... OptM3 with GC (2021)
Angular Grid (max. ang.)         AngularGrid ... 3 (Lebedev-194)
Angular grid pruning method      GridPruning ... 4 (adaptive)
Weight generation scheme         WeightScheme... mBecke (2022)
Basis function cutoff            BFCut       ... 1.0000e-11
Integration weight cutoff        WCut        ... 1.0000e-14
Partially contracted basis set               ... on
Rotationally invariant grid construction     ... off
Angular grids for H and He will be reduced by one unit
Diffuse basis detected: some atoms will have their outermost
                        angular grid increased by 1.

Total number of grid points                  ...   174835
Total number of batches                      ...     1399
Average number of points per batch           ...      124
Average number of grid points per atom       ...     2914
UseSFitting                                  ... on
Grids setup in   9.9 sec
Initializing property integral containers    ... done (  0.2 sec)

SHARK setup successfully completed in  11.3 seconds

Maximum memory used throughout the entire STARTUP-calculation: 89.9 MB


           ************************************************************
           *        Program running with 4 parallel MPI-processes     *
           *              working on a common directory               *
           ************************************************************
-------------------------------------------------------------------------------
                                 ORCA GUESS
                   Start orbitals & Density for SCF / CASSCF
-------------------------------------------------------------------------------

------------
SCF SETTINGS
------------
Hamiltonian:
 Density Functional     Method          .... DFT(GTOs)
 Exchange Functional    Exchange        .... WB88
 Correlation Functional Correlation     .... LYP
 LDA part of GGA corr.  LDAOpt          .... VWN-5
 Gradients option       PostSCFGGA      .... off
 Hybrid DFT is turned on
   Fraction HF Exchange ScalHFX         ....  0.190000
   Scaling of DF-GGA-X  ScalDFX         ....  0.350000
   Scaling of DF-GGA-C  ScalDFC         ....  0.810000
   Scaling of DF-LDA-C  ScalLDAC        ....  1.000000
   Perturbative correction              ....  0.000000
 Long-range corrected/Screened/Range-Separated Hybrid DFT is turned on
   Amount of maximum screened exact exchange              ....  0.460000
   Range separation parameter mu (erf(mu*r12)/r12)        ....  0.330000
 RI-approximation to the Coulomb term is turned on
   Number of AuxJ basis functions       .... 1762
   RIJ-COSX (HFX calculated with COS-X)).... on


General Settings:
 Integral files         IntName         .... td
 Hartree-Fock type      HFTyp           .... RHF
 Total Charge           Charge          ....    0
 Multiplicity           Mult            ....    1
 Number of Electrons    NEL             ....  214
 Basis Dimension        Dim             ....  584
 Nuclear Repulsion      ENuc            ....   2505.2104740031 Eh

Convergence Acceleration:
 AO-DIIS                CNVDIIS         .... on
   Start iteration      DIISMaxIt       ....    12
   Startup error        DIISStart       ....  0.200000
   # of expansion vecs  DIISMaxEq       ....     5
   Bias factor          DIISBfac        ....   1.050
   Max. coefficient     DIISMaxC        ....  10.000
 MO-DIIS                CNVKDIIS        .... off
 Trust-Rad. Augm. Hess. CNVTRAH         .... auto
   Auto Start mean grad. ratio tolernc. ....  1.125000
   Auto Start start iteration           ....    50
   Auto Start num. interpolation iter.  ....    10
   Max. Number of Micro iterations      ....    24
   Max. Number of Macro iterations      .... Maxiter - #DIIS iter
   Number of Davidson start vectors     ....     2
   Converg. threshold    (grad. norm)   ....   1.000e-05
   Grad. Scal. Fac. for Micro threshold ....   0.100
   Minimum threshold for Micro iter.    ....   1.000e-02
   NR start threshold (gradient norm)   ....   1.000e-04
   Initial trust radius                 ....   0.400
   Minimum AH scaling param. (alpha)    ....   1.000
   Maximum AH scaling param. (alpha)    .... 1000.000
   Quad. conv. algorithm                .... NR
   White noise on init. David. guess    .... on
   Maximum white noise                  ....   0.010
   Pseudo random numbers                .... off
   Inactive MOs                         .... canonical
   Orbital update algorithm             .... Taylor
   Preconditioner                       .... Diag
   Full preconditioner red. dimension   ....   250
 SOSCF                 CNVSOSCF           .... on
   Start iteration     SOSCFMaxIt         ....   150
   Startup grad/error  SOSCFStart         ....  0.003300
   Hessian update      SOSCFHessUp        .... L-BFGS
   Autom. constraints  SOSCFAutoConstrain .... off
 Level Shifting         CNVShift        .... on
   Level shift para.    LevelShift      ....    0.2500
   Turn off err/grad.   ShiftErr        ....    0.0010
 Zerner damping         CNVZerner       .... off
 Static damping         CNVDamp         .... on
   Fraction old density DampFac         ....    0.7000
   Max. Damping (<1)    DampMax         ....    0.9800
   Min. Damping (>=0)   DampMin         ....    0.0000
   Turn off err/grad.   DampErr         ....    0.1000

SCF Procedure:
 Maximum # iterations   MaxIter         ....   300
 SCF integral mode      SCFMode         .... Direct
   Integral package                     .... SHARK and LIBINT hybrid scheme
 Reset frequency        DirectResetFreq ....    20
 Integral Threshold     Thresh          ....  1.000e-12 Eh
 Primitive CutOff       TCut            ....  1.000e-13 Eh

Convergence Tolerance:
 Convergence Check Mode ConvCheckMode   .... Total+1el-Energy
 Convergence forced     ConvForced      .... 1
 Energy Change          TolE            ....  1.000e-08 Eh
 1-El. energy change                    ....  1.000e-05 Eh
 Orbital Gradient       TolG            ....  1.000e-05
 Orbital Rotation angle TolX            ....  1.000e-05
 DIIS Error             TolErr          ....  5.000e-07

------------------------------
INITIAL GUESS: MODEL POTENTIAL
------------------------------
Loading Hartree-Fock densities                     ... done
Calculating cut-offs                               ... done
Initializing the effective Hamiltonian             ... done
Setting up the integral package (SHARK)            ... done
Starting the Coulomb interaction                   ... done (   2.6 sec)
Making the grid                                    ... done (   1.6 sec)
Mapping shells                                     ... done
Starting the XC term evaluation                    ... done (   1.6 sec)
  promolecular density results
     # of electrons  =    213.971939330
     EX              =   -171.046982861
     EC              =     -7.141484847
     EX+EC           =   -178.188467708
Transforming the Hamiltonian                       ... done (   0.0 sec)
Diagonalizing the Hamiltonian                      ... done (   0.1 sec)
Back transforming the eigenvectors                 ... done (   0.0 sec)
Now organizing SCF variables                       ... done
                      ------------------
                      INITIAL GUESS DONE (   6.0 sec)
                      ------------------
             **** ENERGY FILE WAS UPDATED (td.en.tmp) ****
Finished Guess after   6.6 sec
Maximum memory used throughout the entire GUESS-calculation: 41.4 MB


           ************************************************************
           *        Program running with 4 parallel MPI-processes     *
           *              working on a common directory               *
           ************************************************************

-------------------------------------------------------------------------------------------
                                      ORCA LEAN-SCF
                              memory conserving SCF solver
-------------------------------------------------------------------------------------------

--------------------
CPCM SOLVATION MODEL
--------------------
CPCM parameters:
  Epsilon                                         ...      25.4510
  Refrac                                          ...       1.3611
  Rsolv                                           ...       1.3000
  Surface type                                    ... GAUSSIAN VDW
  Discretization scheme                           ... Constant charge density
    Threshold for H atoms                         ...       5.0000 (charges/Ang^2)
    Threshold for non-H atoms                     ...       5.0000 (charges/Ang^2)
  Epsilon function type                           ...         CPCM
Solvent:                                          ... ETHANOL
Radii:
  Scheme                                          ... Element-dependent radii
  Radius for C  used is    3.8550 Bohr (=   2.0400 Ang.)
  Radius for O  used is    3.4469 Bohr (=   1.8240 Ang.)
  Radius for N  used is    3.5149 Bohr (=   1.8600 Ang.)
  Radius for H  used is    2.4944 Bohr (=   1.3200 Ang.)
Calculating surface                               ...        done! (  0.0s)
Cavity surface points                             ...         5063
Cavity Volume                                     ...    3387.7580
Cavity Surface-area                               ...    1753.2871
Calculating surface distance matrix               ...        done! (  0.3s)
Performing Cholesky decomposition & store         ...        done! (  2.1s)
Overall time for CPCM initialization              ...                 2.5s

----------------------------------------D-I-I-S--------------------------------------------
Iteration    Energy (Eh)           Delta-E    RMSDP     MaxDP     DIISErr   Damp  Time(sec)
-------------------------------------------------------------------------------------------
               ***  Starting incremental Fock matrix formation  ***
    1    -1287.6596404759870893     0.00e+00  6.32e-02  4.16e+00  2.33e-01  0.700 102.1
    2    -1287.9258423372994002    -2.66e-01  8.13e-02  5.90e+00  1.04e-01  0.700  41.1
                               ***Turning on AO-DIIS***
    3    -1288.0511729773620573    -1.25e-01  7.35e-02  5.60e+00  4.06e-02  0.700  51.5
    4    -1288.1254644118830583    -7.43e-02  1.85e-01  1.45e+01  2.68e-02  0.000  55.4
    5    -1288.2853561759684453    -1.60e-01  1.17e-02  6.95e-01  5.14e-03  0.000  50.9
                              *** Initializing SOSCF ***
---------------------------------------S-O-S-C-F--------------------------------------
Iteration    Energy (Eh)           Delta-E    RMSDP     MaxDP     MaxGrad    Time(sec)
--------------------------------------------------------------------------------------
    6    -1288.2857561118594276    -4.00e-04  3.67e-03  2.26e-01  2.67e-03    47.9
               *** Restarting incremental Fock matrix formation ***
    7    -1288.2857771264498297    -2.10e-05  3.70e-02  1.69e+00  6.66e-04   123.1
    8    -1288.2857954465753210    -1.83e-05  1.28e-02  6.98e-01  1.69e-04    97.6
    9    -1288.2857964220938811    -9.76e-07  1.03e-02  6.11e-01  1.51e-04    87.8
   10    -1288.2857994059791054    -2.98e-06  2.58e-03  1.69e-01  2.51e-05   139.0
   11    -1288.2857994682381104    -6.23e-08  1.32e-03  1.00e-01  1.35e-05   117.3
   12    -1288.2857995153349293    -4.71e-08  5.71e-04  2.85e-02  4.93e-06    97.1
   13    -1288.2857995281156036    -1.28e-08  1.93e-03  2.06e-01  2.78e-06    89.0
   14    -1288.2857995394306272    -1.13e-08  1.07e-03  7.02e-02  8.62e-07    65.2
                  *** Gradient check signals convergence ***

               *****************************************************
               *                     SUCCESS                       *
               *           SCF CONVERGED AFTER  14 CYCLES          *
               *****************************************************

Recomputing exchange energy using gridx3       ... done (  240.986 sec)
Old exchange energy                            :    -49.940058453 Eh
New exchange energy                            :    -49.940048691 Eh
Exchange energy change after final integration :      0.000009762 Eh
Total energy after final integration           :  -1288.285789760 Eh
             **** ENERGY FILE WAS UPDATED (td.en.tmp) ****

----------------
TOTAL SCF ENERGY
----------------

Total Energy       :      -1288.28578976019389 Eh          -35056.03855 eV

Components:
Nuclear Repulsion  :       2505.21047400306952 Eh           68170.24271 eV
Electronic Energy  :      -3793.46984705270597 Eh         -103225.56242 eV
One Electron Energy:      -6727.62696758844322 Eh         -183068.03679 eV
Two Electron Energy:       2934.15712053573725 Eh           79842.47436 eV
CPCM Dielectric    :         -0.02642647284969 Eh              -0.71910 eV

Virial components:
Potential Energy   :      -2567.80025961602951 Eh          -69873.39736 eV
Kinetic Energy     :       1279.51446985583584 Eh           34817.35881 eV
Virial Ratio       :          2.00685519399038

DFT components:
N(Alpha)           :      107.000201590782 electrons
N(Beta)            :      107.000201590782 electrons
N(Total)           :      214.000403181563 electrons
E(XC)              :     -132.503754822025 Eh       

CPCM Solvation Model Properties:
Surface-charge          :         -0.05357934147237
Corrected charge        :         -0.00000000000000
Outlying charge corr.   :          0.00011733872933 Eh               0.00319 eV
Free-energy (cav+disp)  :  This term is not implemented in the current solvation scheme

---------------
SCF CONVERGENCE
---------------

  Last Energy change         ...    1.1315e-08  Tolerance :   1.0000e-08
  Last MAX-Density change    ...    7.0182e-02  Tolerance :   1.0000e-07
  Last RMS-Density change    ...    1.0732e-03  Tolerance :   5.0000e-09
  Last DIIS Error            ...    2.6651e-03  Tolerance :   5.0000e-07
  Last Orbital Gradient      ...    8.6243e-07  Tolerance :   1.0000e-05
  Last Orbital Rotation      ...    5.0927e-06  Tolerance :   1.0000e-05


----------------
ORBITAL ENERGIES
----------------

  NO   OCC          E(Eh)            E(eV) 
   0   2.0000     -19.277718      -524.5734 
   1   2.0000     -19.249355      -523.8016 
   2   2.0000     -19.230614      -523.2916 
   3   2.0000     -19.228526      -523.2348 
   4   2.0000     -14.438820      -392.9003 
   5   2.0000     -10.412009      -283.3252 
   6   2.0000     -10.369981      -282.1815 
   7   2.0000     -10.344768      -281.4954 
   8   2.0000     -10.329045      -281.0676 
   9   2.0000     -10.312021      -280.6044 
  10   2.0000     -10.293923      -280.1119 
  11   2.0000     -10.293605      -280.1032 
  12   2.0000     -10.290141      -280.0090 
  13   2.0000     -10.289698      -279.9969 
  14   2.0000     -10.283511      -279.8286 
  15   2.0000     -10.282888      -279.8116 
  16   2.0000     -10.281929      -279.7855 
  17   2.0000     -10.281481      -279.7733 
  18   2.0000     -10.280978      -279.7596 
  19   2.0000     -10.270665      -279.4790 
  20   2.0000     -10.260666      -279.2069 
  21   2.0000     -10.255049      -279.0541 
  22   2.0000     -10.252522      -278.9853 
  23   2.0000     -10.248824      -278.8847 
  24   2.0000     -10.245145      -278.7846 
  25   2.0000     -10.244936      -278.7789 
  26   2.0000     -10.244832      -278.7761 
  27   2.0000     -10.244225      -278.7595 
  28   2.0000     -10.237575      -278.5786 
  29   2.0000      -1.203203       -32.7408 
  30   2.0000      -1.162058       -31.6212 
  31   2.0000      -1.126470       -30.6528 
  32   2.0000      -1.114052       -30.3149 
  33   2.0000      -1.046036       -28.4641 
  34   2.0000      -0.964000       -26.2318 
  35   2.0000      -0.938253       -25.5312 
  36   2.0000      -0.894013       -24.3273 
  37   2.0000      -0.879202       -23.9243 
  38   2.0000      -0.860522       -23.4160 
  39   2.0000      -0.855440       -23.2777 
  40   2.0000      -0.848590       -23.0913 
  41   2.0000      -0.845455       -23.0060 
  42   2.0000      -0.827657       -22.5217 
  43   2.0000      -0.808915       -22.0117 
  44   2.0000      -0.800213       -21.7749 
  45   2.0000      -0.757031       -20.5999 
  46   2.0000      -0.738447       -20.0942 
  47   2.0000      -0.722597       -19.6629 
  48   2.0000      -0.720370       -19.6023 
  49   2.0000      -0.699810       -19.0428 
  50   2.0000      -0.680124       -18.5071 
  51   2.0000      -0.674527       -18.3548 
  52   2.0000      -0.670690       -18.2504 
  53   2.0000      -0.661530       -18.0011 
  54   2.0000      -0.649575       -17.6758 
  55   2.0000      -0.637596       -17.3499 
  56   2.0000      -0.622119       -16.9287 
  57   2.0000      -0.602243       -16.3879 
  58   2.0000      -0.592213       -16.1149 
  59   2.0000      -0.573959       -15.6182 
  60   2.0000      -0.568549       -15.4710 
  61   2.0000      -0.566408       -15.4128 
  62   2.0000      -0.551540       -15.0082 
  63   2.0000      -0.547353       -14.8942 
  64   2.0000      -0.540587       -14.7101 
  65   2.0000      -0.534814       -14.5530 
  66   2.0000      -0.531956       -14.4753 
  67   2.0000      -0.529284       -14.4026 
  68   2.0000      -0.520008       -14.1501 
  69   2.0000      -0.514336       -13.9958 
  70   2.0000      -0.508270       -13.8307 
  71   2.0000      -0.503535       -13.7019 
  72   2.0000      -0.501121       -13.6362 
  73   2.0000      -0.494169       -13.4470 
  74   2.0000      -0.491327       -13.3697 
  75   2.0000      -0.489528       -13.3207 
  76   2.0000      -0.486700       -13.2438 
  77   2.0000      -0.477592       -12.9959 
  78   2.0000      -0.471455       -12.8289 
  79   2.0000      -0.465714       -12.6727 
  80   2.0000      -0.462526       -12.5860 
  81   2.0000      -0.459660       -12.5080 
  82   2.0000      -0.455443       -12.3932 
  83   2.0000      -0.453645       -12.3443 
  84   2.0000      -0.442351       -12.0370 
  85   2.0000      -0.439255       -11.9527 
  86   2.0000      -0.437687       -11.9101 
  87   2.0000      -0.432733       -11.7753 
  88   2.0000      -0.423847       -11.5335 
  89   2.0000      -0.421808       -11.4780 
  90   2.0000      -0.415953       -11.3187 
  91   2.0000      -0.414130       -11.2691 
  92   2.0000      -0.411930       -11.2092 
  93   2.0000      -0.410722       -11.1763 
  94   2.0000      -0.399479       -10.8704 
  95   2.0000      -0.397028       -10.8037 
  96   2.0000      -0.390190       -10.6176 
  97   2.0000      -0.386229       -10.5098 
  98   2.0000      -0.378610       -10.3025 
  99   2.0000      -0.364837        -9.9277 
 100   2.0000      -0.362427        -9.8621 
 101   2.0000      -0.357045        -9.7157 
 102   2.0000      -0.343834        -9.3562 
 103   2.0000      -0.326680        -8.8894 
 104   2.0000      -0.323835        -8.8120 
 105   2.0000      -0.292359        -7.9555 
 106   2.0000      -0.258147        -7.0245 
 107   0.0000      -0.041753        -1.1361 
 108   0.0000      -0.003251        -0.0885 
 109   0.0000       0.017494         0.4760 
 110   0.0000       0.028381         0.7723 
 111   0.0000       0.035623         0.9693 
 112   0.0000       0.038457         1.0465 
 113   0.0000       0.043625         1.1871 
 114   0.0000       0.047369         1.2890 
 115   0.0000       0.048564         1.3215 
 116   0.0000       0.051749         1.4082 
 117   0.0000       0.052834         1.4377 
*Only the first 10 virtual orbitals were printed.

                    ********************************
                    * MULLIKEN POPULATION ANALYSIS *
                    ********************************

-----------------------
MULLIKEN ATOMIC CHARGES
-----------------------
   0 C :   -0.933854
   1 C :   -0.213936
   2 C :   -0.396578
   3 C :   -0.193221
   4 C :   -0.224167
   5 C :   -0.406948
   6 O :   -0.245467
   7 C :    0.485607
   8 O :   -0.548856
   9 C :    0.085500
  10 C :   -0.113187
  11 C :   -0.471661
  12 C :    0.303911
  13 C :   -0.552042
  14 C :   -0.098312
  15 C :    0.231070
  16 O :   -0.575787
  17 C :    0.562304
  18 C :   -1.132456
  19 C :   -0.457917
  20 C :    0.464167
  21 C :   -0.146741
  22 C :    0.216506
  23 O :   -0.740872
  24 N :   -0.127091
  25 C :   -0.352601
  26 C :   -0.628047
  27 C :   -0.324263
  28 C :   -0.640966
  29 H :    0.206663
  30 H :    0.202794
  31 H :    0.206237
  32 H :    0.198262
  33 H :    0.197729
  34 H :    0.200571
  35 H :    0.201613
  36 H :    0.209122
  37 H :    0.208092
  38 H :    0.223319
  39 H :    0.217951
  40 H :    0.237205
  41 H :    0.227525
  42 H :    0.240758
  43 H :    0.237319
  44 H :    0.245302
  45 H :    0.245052
  46 H :    0.234551
  47 H :    0.213827
  48 H :    0.216991
  49 H :    0.572329
  50 H :    0.218601
  51 H :    0.232426
  52 H :    0.221707
  53 H :    0.223110
  54 H :    0.219225
  55 H :    0.232263
  56 H :    0.219901
  57 H :    0.221267
  58 H :    0.219393
  59 H :    0.224803
Sum of atomic charges:    0.0000000

--------------------------------
MULLIKEN REDUCED ORBITAL CHARGES
--------------------------------
  0 C s       :     3.749674  s :     3.749674
      pz      :     0.994000  p :     3.148887
      px      :     1.104072
      py      :     1.050815
      dz2     :     0.010326  d :     0.035293
      dxz     :     0.002296
      dyz     :     0.008028
      dx2y2   :     0.006947
      dxy     :     0.007695

  1 C s       :     3.310166  s :     3.310166
      pz      :     0.938321  p :     2.862743
      px      :     0.911054
      py      :     1.013367
      dz2     :     0.010053  d :     0.041028
      dxz     :     0.004676
      dyz     :     0.009185
      dx2y2   :     0.006227
      dxy     :     0.010887

  2 C s       :     3.500839  s :     3.500839
      pz      :     0.935594  p :     2.854864
      px      :     0.897550
      py      :     1.021719
      dz2     :     0.009872  d :     0.040874
      dxz     :     0.004793
      dyz     :     0.009274
      dx2y2   :     0.006056
      dxy     :     0.010879

  3 C s       :     3.474056  s :     3.474056
      pz      :     0.950666  p :     2.678451
      px      :     0.732440
      py      :     0.995345
      dz2     :     0.010095  d :     0.040714
      dxz     :     0.004554
      dyz     :     0.009045
      dx2y2   :     0.006328
      dxy     :     0.010691

  4 C s       :     3.430259  s :     3.430259
      pz      :     0.911299  p :     2.753992
      px      :     0.820375
      py      :     1.022318
      dz2     :     0.009111  d :     0.039915
      dxz     :     0.004776
      dyz     :     0.009825
      dx2y2   :     0.005828
      dxy     :     0.010376

  5 C s       :     3.689185  s :     3.689185
      pz      :     1.010530  p :     2.655669
      px      :     0.586679
      py      :     1.058460
      dz2     :     0.013609  d :     0.062094
      dxz     :     0.008976
      dyz     :     0.009886
      dx2y2   :     0.015159
      dxy     :     0.014464

  6 O s       :     3.688167  s :     3.688167
      pz      :     1.659989  p :     4.529700
      px      :     1.375238
      py      :     1.494474
      dz2     :     0.004616  d :     0.027599
      dxz     :     0.003560
      dyz     :     0.005815
      dx2y2   :     0.009165
      dxy     :     0.004444

  7 C s       :     3.174416  s :     3.174416
      pz      :     0.710517  p :     2.209686
      px      :     0.826680
      py      :     0.672488
      dz2     :     0.019358  d :     0.130291
      dxz     :     0.017372
      dyz     :     0.024234
      dx2y2   :     0.042659
      dxy     :     0.026668

  8 O s       :     3.949973  s :     3.949973
      pz      :     1.476677  p :     4.573279
      px      :     1.582397
      py      :     1.514205
      dz2     :     0.004866  d :     0.025604
      dxz     :     0.004917
      dyz     :     0.004161
      dx2y2   :     0.005708
      dxy     :     0.005953

  9 C s       :     2.884419  s :     2.884419
      pz      :     0.968137  p :     2.992170
      px      :     0.986284
      py      :     1.037750
      dz2     :     0.005747  d :     0.037911
      dxz     :     0.005120
      dyz     :     0.005786
      dx2y2   :     0.012496
      dxy     :     0.008761

 10 C s       :     3.057865  s :     3.057865
      pz      :     0.945028  p :     3.019022
      px      :     1.036508
      py      :     1.037485
      dz2     :     0.003675  d :     0.036300
      dxz     :     0.007345
      dyz     :     0.005017
      dx2y2   :     0.008622
      dxy     :     0.011640

 11 C s       :     3.591862  s :     3.591862
      pz      :     1.022080  p :     2.843653
      px      :     0.808417
      py      :     1.013156
      dz2     :     0.003294  d :     0.036146
      dxz     :     0.007101
      dyz     :     0.005087
      dx2y2   :     0.009545
      dxy     :     0.011119

 12 C s       :     2.266594  s :     2.266594
      pz      :     1.205679  p :     3.390883
      px      :     1.312909
      py      :     0.872295
      dz2     :     0.005577  d :     0.038612
      dxz     :     0.005347
      dyz     :     0.005631
      dx2y2   :     0.012032
      dxy     :     0.010025

 13 C s       :     3.350436  s :     3.350436
      pz      :     1.061494  p :     3.165342
      px      :     1.173220
      py      :     0.930628
      dz2     :     0.003680  d :     0.036265
      dxz     :     0.007260
      dyz     :     0.005201
      dx2y2   :     0.008599
      dxy     :     0.011525

 14 C s       :     3.263713  s :     3.263713
      pz      :     0.952601  p :     2.798264
      px      :     0.769809
      py      :     1.075854
      dz2     :     0.003372  d :     0.036335
      dxz     :     0.007619
      dyz     :     0.005267
      dx2y2   :     0.009241
      dxy     :     0.010836

 15 C s       :     2.641420  s :     2.641420
      pz      :     0.728261  p :     3.038730
      px      :     1.479019
      py      :     0.831450
      dz2     :     0.007671  d :     0.088780
      dxz     :     0.007621
      dyz     :     0.017680
      dx2y2   :     0.026729
      dxy     :     0.029079

 16 O s       :     3.935408  s :     3.935408
      pz      :     1.503517  p :     4.616351
      px      :     1.773680
      py      :     1.339154
      dz2     :     0.003086  d :     0.024029
      dxz     :     0.000821
      dyz     :     0.007758
      dx2y2   :     0.007068
      dxy     :     0.005296

 17 C s       :     2.686467  s :     2.686467
      pz      :     1.181980  p :     2.716323
      px      :     0.442181
      py      :     1.092161
      dz2     :     0.003776  d :     0.034906
      dxz     :     0.004683
      dyz     :     0.004945
      dx2y2   :     0.010502
      dxy     :     0.011000

 18 C s       :     3.659713  s :     3.659713
      pz      :     1.030268  p :     3.433568
      px      :     1.334789
      py      :     1.068510
      dz2     :     0.005403  d :     0.039176
      dxz     :     0.003848
      dyz     :     0.007498
      dx2y2   :     0.013373
      dxy     :     0.009054

 19 C s       :     3.194822  s :     3.194822
      pz      :     1.155609  p :     3.229311
      px      :     1.082497
      py      :     0.991205
      dz2     :     0.003131  d :     0.033784
      dxz     :     0.005162
      dyz     :     0.004505
      dx2y2   :     0.011850
      dxy     :     0.009135

 20 C s       :     3.268517  s :     3.268517
      pz      :     0.799759  p :     2.205012
      px      :     0.684340
      py      :     0.720912
      dz2     :     0.007055  d :     0.062303
      dxz     :     0.012167
      dyz     :     0.010979
      dx2y2   :     0.014862
      dxy     :     0.017240

 21 C s       :     2.710921  s :     2.710921
      pz      :     1.131963  p :     3.404584
      px      :     1.024832
      py      :     1.247790
      dz2     :     0.003826  d :     0.031236
      dxz     :     0.003403
      dyz     :     0.004520
      dx2y2   :     0.009835
      dxy     :     0.009652

 22 C s       :     3.113140  s :     3.113140
      pz      :     0.792250  p :     2.593749
      px      :     0.875707
      py      :     0.925792
      dz2     :     0.008197  d :     0.076605
      dxz     :     0.010401
      dyz     :     0.015555
      dx2y2   :     0.021524
      dxy     :     0.020927

 23 O s       :     3.980061  s :     3.980061
      pz      :     1.760698  p :     4.732950
      px      :     1.625117
      py      :     1.347134
      dz2     :     0.004368  d :     0.027861
      dxz     :     0.003100
      dyz     :     0.003730
      dx2y2   :     0.006020
      dxy     :     0.010643

 24 N s       :     3.238177  s :     3.238177
      pz      :     1.606370  p :     3.851806
      px      :     1.104030
      py      :     1.141407
      dz2     :     0.003754  d :     0.037108
      dxz     :     0.005679
      dyz     :     0.004966
      dx2y2   :     0.011145
      dxy     :     0.011564

 25 C s       :     3.446880  s :     3.446880
      pz      :     0.919437  p :     2.850770
      px      :     1.118792
      py      :     0.812541
      dz2     :     0.011858  d :     0.054951
      dxz     :     0.009930
      dyz     :     0.012384
      dx2y2   :     0.010006
      dxy     :     0.010773

 26 C s       :     3.472396  s :     3.472396
      pz      :     0.891149  p :     3.121490
      px      :     1.114349
      py      :     1.115992
      dz2     :     0.008131  d :     0.034161
      dxz     :     0.008617
      dyz     :     0.004079
      dx2y2   :     0.006941
      dxy     :     0.006392

 27 C s       :     3.433988  s :     3.433988
      pz      :     0.971959  p :     2.835373
      px      :     0.750987
      py      :     1.112427
      dz2     :     0.009620  d :     0.054902
      dxz     :     0.014049
      dyz     :     0.009050
      dx2y2   :     0.015343
      dxy     :     0.006840

 28 C s       :     3.487778  s :     3.487778
      pz      :     0.937555  p :     3.119028
      px      :     1.067069
      py      :     1.114403
      dz2     :     0.007599  d :     0.034161
      dxz     :     0.005117
      dyz     :     0.008338
      dx2y2   :     0.010445
      dxy     :     0.002662

 29 H s       :     0.793337  s :     0.793337

 30 H s       :     0.797206  s :     0.797206

 31 H s       :     0.793763  s :     0.793763

 32 H s       :     0.801738  s :     0.801738

 33 H s       :     0.802271  s :     0.802271

 34 H s       :     0.799429  s :     0.799429

 35 H s       :     0.798387  s :     0.798387

 36 H s       :     0.790878  s :     0.790878

 37 H s       :     0.791908  s :     0.791908

 38 H s       :     0.776681  s :     0.776681

 39 H s       :     0.782049  s :     0.782049

 40 H s       :     0.762795  s :     0.762795

 41 H s       :     0.772475  s :     0.772475

 42 H s       :     0.759242  s :     0.759242

 43 H s       :     0.762681  s :     0.762681

 44 H s       :     0.754698  s :     0.754698

 45 H s       :     0.754948  s :     0.754948

 46 H s       :     0.765449  s :     0.765449

 47 H s       :     0.786173  s :     0.786173

 48 H s       :     0.783009  s :     0.783009

 49 H s       :     0.427671  s :     0.427671

 50 H s       :     0.781399  s :     0.781399

 51 H s       :     0.767574  s :     0.767574

 52 H s       :     0.778293  s :     0.778293

 53 H s       :     0.776890  s :     0.776890

 54 H s       :     0.780775  s :     0.780775

 55 H s       :     0.767737  s :     0.767737

 56 H s       :     0.780099  s :     0.780099

 57 H s       :     0.778733  s :     0.778733

 58 H s       :     0.780607  s :     0.780607

[...]
  0-1A  ->  6-1A    5.245108   42304.7   236.4   0.261509307   2.03505   1.38986   0.32050  -0.02469
  0-1A  ->  7-1A    5.280504   42590.1   234.8   0.047831335   0.36973  -0.60282  -0.02692   0.07492
  0-1A  ->  8-1A    5.339730   43067.8   232.2   0.210338579   1.60784   1.17458   0.47075   0.08119
  0-1A  ->  9-1A    5.488841   44270.5   225.9   0.014802150   0.11007  -0.01709  -0.22222   0.24576
  0-1A  -> 10-1A    5.782795   46641.4   214.4   0.001211126   0.00855  -0.06729  -0.06103  -0.01721
  0-1A  -> 11-1A    5.844949   47142.7   212.1   0.095438129   0.66647  -0.81551   0.03342   0.01715
  0-1A  -> 12-1A    6.066373   48928.6   204.4   0.009329295   0.06277   0.13803  -0.13457  -0.16003
  0-1A  -> 13-1A    6.096758   49173.7   203.4   0.023537052   0.15758  -0.36073  -0.14125  -0.08662
  0-1A  -> 14-1A    6.134010   49474.1   202.1   0.029727303   0.19781  -0.06485   0.42847   0.10009
  0-1A  -> 15-1A    6.142925   49546.0   201.8   0.057020513   0.37888  -0.57374  -0.22265   0.01142
  0-1A  -> 16-1A    6.213454   50114.9   199.5   0.008118959   0.05333   0.12014  -0.15740   0.11885
  0-1A  -> 17-1A    6.306475   50865.2   196.6   0.012402316   0.08027   0.12125   0.21733   0.13540
  0-1A  -> 18-1A    6.347654   51197.3   195.3   0.065354279   0.42025  -0.62074   0.18683   0.00464
  0-1A  -> 19-1A    6.456012   52071.3   192.0   0.376520424   2.38049  -0.87395   1.22725   0.33248
  0-1A  -> 20-1A    6.498518   52414.1   190.8   0.291816109   1.83289  -0.87264   0.89517   0.51967
  0-1A  -> 21-1A    6.524238   52621.5   190.0   0.024171703   0.15122   0.12747  -0.27019  -0.24895
  0-1A  -> 22-1A    6.613883   53344.6   187.5   0.003940838   0.02432  -0.03703  -0.02489   0.14943

----------------------------------------------------------------------------------------------------
                     ABSORPTION SPECTRUM VIA TRANSITION VELOCITY DIPOLE MOMENTS    
----------------------------------------------------------------------------------------------------
     Transition      Energy     Energy  Wavelength fosc(P2)      P2        PX        PY        PZ   
                      (eV)      (cm-1)    (nm)                 (au**2)    (au)      (au)      (au)  
----------------------------------------------------------------------------------------------------
  0-1A  ->  1-1A    3.898759   31445.6   318.0   0.450214245   0.09676   0.28870  -0.10337  -0.05219
  0-1A  ->  2-1A    4.358518   35153.8   284.5   0.001398023   0.00034   0.00730   0.01551   0.00648
  0-1A  ->  3-1A    4.410257   35571.1   281.1   0.004266978   0.00104  -0.02791   0.01440   0.00714
  0-1A  ->  4-1A    4.888006   39424.4   253.6   0.003913717   0.00105   0.02585  -0.01776  -0.00842
  0-1A  ->  5-1A    4.957440   39984.5   250.1   0.081746016   0.02234  -0.11390   0.08849   0.03919
  0-1A  ->  6-1A    5.245108   42304.7   236.4   0.107426477   0.03106  -0.17238   0.00919   0.03553
  0-1A  ->  7-1A    5.280504   42590.1   234.8   0.015900012   0.00463   0.06683  -0.00893  -0.00908
  0-1A  ->  8-1A    5.339730   43067.8   232.2   0.159610019   0.04698  -0.20974  -0.05462  -0.00285
  0-1A  ->  9-1A    5.488841   44270.5   225.9   0.010437153   0.00316   0.01426   0.04085  -0.03586
  0-1A  -> 10-1A    5.782795   46641.4   214.4   0.002520481   0.00080   0.00029  -0.02236   0.01742
  0-1A  -> 11-1A    5.844949   47142.7   212.1   0.019894006   0.00641   0.07555  -0.01405  -0.02247
  0-1A  -> 12-1A    6.066373   48928.6   204.4   0.005183046   0.00173  -0.04097   0.00734   0.00102
  0-1A  -> 13-1A    6.096758   49173.7   203.4   0.004036574   0.00136   0.03406  -0.01271   0.00588
  0-1A  -> 14-1A    6.134010   49474.1   202.1   0.009400658   0.00318   0.01872  -0.05096  -0.01520
  0-1A  -> 15-1A    6.142925   49546.0   201.8   0.033769347   0.01144   0.10209   0.03182   0.00039
  0-1A  -> 16-1A    6.213454   50114.9   199.5   0.002298758   0.00079  -0.02383  -0.01481  -0.00032
  0-1A  -> 17-1A    6.306475   50865.2   196.6   0.000819528   0.00028  -0.01027  -0.01278  -0.00400
  0-1A  -> 18-1A    6.347654   51197.3   195.3   0.027767938   0.00972   0.08349  -0.05044  -0.01420
  0-1A  -> 19-1A    6.456012   52071.3   192.0   0.166632638   0.05930   0.16428  -0.16734  -0.06565
  0-1A  -> 20-1A    6.498518   52414.1   190.8   0.144968582   0.05193   0.18795  -0.11651  -0.05507
  0-1A  -> 21-1A    6.524238   52621.5   190.0   0.004963199   0.00178  -0.02430   0.03128   0.01470
  0-1A  -> 22-1A    6.613883   53344.6   187.5   0.004213198   0.00154   0.01746   0.00571  -0.03462

------------------------------------------------------------------------------------------
                     CD SPECTRUM VIA TRANSITION ELECTRIC DIPOLE MOMENTS    
------------------------------------------------------------------------------------------
     Transition      Energy     Energy  Wavelength    R        MX        MY        MZ   
                      (eV)      (cm-1)    (nm)   (1e40*cgs)   (au)      (au)      (au)  
------------------------------------------------------------------------------------------
  0-1A  ->  1-1A    3.898759   31445.6   318.0   15.70922   0.07183  -0.19095   0.70064
  0-1A  ->  2-1A    4.358518   35153.8   284.5  -58.53025  -0.05920  -0.11170  -0.30733
  0-1A  ->  3-1A    4.410257   35571.1   281.1   30.93787   0.05621   0.30403  -0.35741
  0-1A  ->  4-1A    4.888006   39424.4   253.6  -17.44941   0.01575  -0.05453   0.06359
  0-1A  ->  5-1A    4.957440   39984.5   250.1  -12.56398  -0.05996   0.02659  -0.27690
  0-1A  ->  6-1A    5.245108   42304.7   236.4  -67.31042   0.04992   0.18769  -0.53616
  0-1A  ->  7-1A    5.280504   42590.1   234.8   32.63734   0.17630  -0.29362   0.38902
  0-1A  ->  8-1A    5.339730   43067.8   232.2   69.08762  -0.15213   0.15035  -0.47585
  0-1A  ->  9-1A    5.488841   44270.5   225.9   28.45225  -0.03212  -0.11291  -0.34989
  0-1A  -> 10-1A    5.782795   46641.4   214.4    6.62752   0.06928   0.10313   0.18022
  0-1A  -> 11-1A    5.844949   47142.7   212.1    2.94974   0.00200  -0.10507  -0.06507
  0-1A  -> 12-1A    6.066373   48928.6   204.4   16.09097  -0.07971   0.10731   0.05429
  0-1A  -> 13-1A    6.096758   49173.7   203.4   -8.51792  -0.05160  -0.03483   0.06309
  0-1A  -> 14-1A    6.134010   49474.1   202.1   29.98735   0.19320  -0.19198   0.31156
  0-1A  -> 15-1A    6.142925   49546.0   201.8   -7.30227  -0.02086  -0.00571   0.19695
  0-1A  -> 16-1A    6.213454   50114.9   199.5   -1.11633  -0.00540   0.03298   0.06906
  0-1A  -> 17-1A    6.306475   50865.2   196.6    3.38831  -0.04928  -0.02592   0.03265
  0-1A  -> 18-1A    6.347654   51197.3   195.3   -2.06673  -0.04818  -0.14204   0.21858
  0-1A  -> 19-1A    6.456012   52071.3   192.0  -36.07313   0.01224  -0.13371   0.75587
  0-1A  -> 20-1A    6.498518   52414.1   190.8  -67.28148   0.01214  -0.21499   0.66534
  0-1A  -> 21-1A    6.524238   52621.5   190.0  -29.06576   0.08868   0.06637  -0.27428
  0-1A  -> 22-1A    6.613883   53344.6   187.5    3.81007  -0.17656  -0.11224  -0.11653

------------------------------------------------------------------------------------------
                     CD SPECTRUM VIA TRANSITION VELOCITY DIPOLE MOMENTS    
------------------------------------------------------------------------------------------
     Transition      Energy     Energy  Wavelength    R        MX        MY        MZ   
                      (eV)      (cm-1)    (nm)   (1e40*cgs)   (au)      (au)      (au)  
------------------------------------------------------------------------------------------
  0-1A  ->  1-1A    3.898759   31445.6   318.0   12.85977   0.07183  -0.19095   0.70064
  0-1A  ->  2-1A    4.358518   35153.8   284.5  -12.23641  -0.05920  -0.11170  -0.30733
  0-1A  ->  3-1A    4.410257   35571.1   281.1    0.74441   0.05621   0.30403  -0.35741
  0-1A  ->  4-1A    4.888006   39424.4   253.6    2.20561   0.01575  -0.05453   0.06359
  0-1A  ->  5-1A    4.957440   39984.5   250.1   -4.32169  -0.05996   0.02659  -0.27690
  0-1A  ->  6-1A    5.245108   42304.7   236.4  -63.42570   0.04992   0.18769  -0.53616
  0-1A  ->  7-1A    5.280504   42590.1   234.8   26.40869   0.17630  -0.29362   0.38902
  0-1A  ->  8-1A    5.339730   43067.8   232.2   60.17887  -0.15213   0.15035  -0.47585
  0-1A  ->  9-1A    5.488841   44270.5   225.9   17.47835  -0.03212  -0.11291  -0.34989
  0-1A  -> 10-1A    5.782795   46641.4   214.4    1.89538   0.06928   0.10313   0.18022
  0-1A  -> 11-1A    5.844949   47142.7   212.1    6.78091   0.00200  -0.10507  -0.06507
  0-1A  -> 12-1A    6.066373   48928.6   204.4    8.68854  -0.07971   0.10731   0.05429
  0-1A  -> 13-1A    6.096758   49173.7   203.4   -1.98653  -0.05160  -0.03483   0.06309
  0-1A  -> 14-1A    6.134010   49474.1   202.1   18.12581   0.19320  -0.19198   0.31156
  0-1A  -> 15-1A    6.142925   49546.0   201.8   -4.66543  -0.02086  -0.00571   0.19695
  0-1A  -> 16-1A    6.213454   50114.9   199.5   -0.78890  -0.00540   0.03298   0.06906
  0-1A  -> 17-1A    6.306475   50865.2   196.6    1.43826  -0.04928  -0.02592   0.03265
  0-1A  -> 18-1A    6.347654   51197.3   195.3    0.07724  -0.04818  -0.14204   0.21858
  0-1A  -> 19-1A    6.456012   52071.3   192.0  -50.14957   0.01224  -0.13371   0.75587
  0-1A  -> 20-1A    6.498518   52414.1   190.8  -18.38162   0.01214  -0.21499   0.66534
  0-1A  -> 21-1A    6.524238   52621.5   190.0   -8.08377   0.08868   0.06637  -0.27428
  0-1A  -> 22-1A    6.613883   53344.6   187.5    0.60538  -0.17656  -0.11224  -0.11653

Total run time:     2502.958 sec

           *** ORCA-CIS/TD-DFT FINISHED WITHOUT ERROR ***
-----------------------
CIS/TD-DFT TOTAL ENERGY
-----------------------

    E(SCF)  =  -1288.285789760 Eh
    DE(CIS) =      0.143276748 Eh (Root  1)
    ----------------------------- ---------
    E(tot)  =  -1288.142513012 Eh


Maximum memory used throughout the entire CIS-calculation: 1408.2 MB
=> NOW LEAVING ORCA_CIS

-------------------------   --------------------
FINAL SINGLE POINT ENERGY     -1288.142513012171
-------------------------   --------------------



           ************************************************************
           *        Program running with 4 parallel MPI-processes     *
           *              working on a common directory               *
           ************************************************************

------------------------------------------------------------------------------
                              ORCA PROPERTY CALCULATIONS
------------------------------------------------------------------------------

GBWName                                 ... td.gbw
Number of atoms                         ...     60
Number of basis functions               ...    584
Max core memory                         ...   2500 MB

Electric properties:
Dipole moment                           ... YES
Quadrupole moment                       ...  NO
Static polarizability (Dipole/Dipole)   ...  NO
Static polarizability (Dipole/Quad.)    ...  NO
Static polarizability (Quad./Quad.)     ...  NO
Static polarizability (Velocity)        ...  NO
Static hyperpolarizability              ...  NO

Atomic electric properties:
Dipole moment                           ...  NO
Quadrupole moment                       ...  NO
Static polarizability                   ...  NO

Choice of electric origin               ... Center of mass
Position of electric origin             ...    -0.731883    -1.385809    -0.422874

General magnetic properties:
Magnetizability                         ...  NO

EPR properties:
g-Tensor (aka g-matrix)                 ...  NO
Zero-Field splitting spin-orbit         ...  NO
Zero-field splitting spin-spin          ...  NO
Hyperfine couplings                     ...  NO (   0 nuclei)
Quadrupole couplings                    ...  NO (   0 nuclei)
Contact density                         ...  NO (   0 nuclei)

NMR properties:
Chemical shifts                         ...  NO (   0 nuclei)
Spin-rotation constants                 ...  NO (   0 nuclei)
Spin-spin couplings                     ...  NO (   0 nuclei,    0 pairs)

Choice of magnetic origin               ... GIAO
Position of magnetic origin             ...     0.000000     0.000000     0.000000

Properties with geometric perturbations:
SCF Hessian                             ...  NO
IR spectrum                             ...  NO
VCD spectrum                            ...  NO
X-ray spectroscopy properties:
SCF XES/XAS/RIXS spectra                ...  NO

SCF SOC stabilization energy            ...  NO
Diagonal Born-Oppenheimer correction    ...  NO

-------------
DIPOLE MOMENT
-------------

Method             : SCF
Type of density    : Electron Density
Multiplicity       :   1
Irrep              :   0
Energy             : -1288.2857897601938930 Eh
Basis              : AO
                                X                 Y                 Z
Electronic contribution:    -24.079035759     -34.535315326     -12.190069058
Nuclear contribution   :     23.273631344      38.657545717      12.818519646
                        -----------------------------------------
Total Dipole Moment    :     -0.805404415       4.122230391       0.628450588
                        -----------------------------------------
Magnitude (a.u.)       :      4.246929457
Magnitude (Debye)      :     10.794836799



--------------------
Rotational spectrum 
--------------------
 
Rotational constants in cm-1:             0.008476             0.001481             0.001298 
Rotational constants in MHz :           254.100901            44.386530            38.925661 

Dipole components along the rotational axes: 
x,y,z [a.u.] :    -0.647222     4.090326    -0.941674 
x,y,z [Debye]:    -1.645108    10.396781    -2.393545 

 

Dipole moment calculation done in   0.2 sec 

Maximum memory used throughout the entire PROP-calculation: 44.0 MB

--------------------------------
SUGGESTED CITATIONS FOR THIS RUN
--------------------------------

Below you find a list of papers that are relevant to this ORCA run
We neither can nor want to force you to cite these papers, but we appreciate if you do
You receive ORCA, which is the product of decades of hard work by many enthusiastic individuals, for free
The only thing we kindly ask in return is that you cite our papers,
We deeply appreciate it, if you show your appreciation for ORCA by not just citing the generic ORCA reference.

Please note that relegating all ORCA citations to the supporting information does *not* help us.
SI sections are not indexed - citations you put there will not count into any citation statistics
But we need these citations in order to attract the funding resources that allow us to do what we are doing

Therefore, if you are a happy ORCA user, please consider citing a few of the papers listed below in the main body of your paper

In addition to the list printed below, the program has created the file td.bibtex that contains the list in bibtex format
You can import this file easily into all common literature databanks and citation aid programs

It goes without saying that in many instances, there are alternative algorithms to achieve similar
results as the ones you have gotten from ORCA. It is, of course, also the case that in some instances
ORCA just re-implements algorithms worked out by others. We are fully aware of that and we are also
fully appreciative of our colleagues work. Hence this citation list should not be read as indicating
that the listed papers, which are focused on our own work, are the only ones worth citing. It simply
meant to make it easier for users to cite ORCA specific papers. It is not a substitute for doing your
own literature research and citing the relevant literature in a scientifically appropriate manner.

List of essential papers. We consider these as the minimum necessary citations

  1. Neese, F.
     Software update: the ORCA program system, version 6.0
     WIRES Comput. Molec. Sci. 2025 15(1), e70019
     doi.org/10.1002/wcms.70019

List of papers to cite with high priority. The work reported in these papers was absolutely
necessary for this run to complete.
Our perspective: the developers of density functionals and basis sets usually get cited in chemistry papers
Good! But without the algorithms to do something with them, the functionals or basis sets would not do anything.
Hence, in our opinion, the algorithm design and method developments papers are equally worthy of getting cited

  1. Neese, F.; Olbrich, G.
     Efficient use of the resolution of the identity approximation in time-dependent density functional calculations with hybrid density functionals
     Chem. Phys. Lett. 2002 362 , 170-178
     doi.org/10.1016/s0009-2614(02)01053-9
  2. Neese, F.
     An improvement of the resolution of the identity approximation for the formation of the Coulomb matrix
     J. Comp. Chem. 2003 24(14), 1740-1747
     doi.org/10.1002/jcc.10318
  3. Neese, F.; Wennmohs, F.; Hansen, A.; Becker, U.
     Efficient, approximate and parallel Hartree-Fock and hybrid DFT calculations. A 'chain-of-spheres' algorithm for the Hartree-Fock exchange
     Chem. Phys. 2009 356(1-3), 98-109
     doi.org/10.1016/j.chemphys.2008.10.036
  4. Garcia-Rates, M.; Neese, F.
     Effect of the Solute Cavity on the Solvation Energy and its Derivatives within the Framework of the Gaussian Charge Scheme
     J. Comput. Chem. 2020 41 , 922-939
     doi.org/10.1002/jcc.26139
  5. Helmich-Paris, B.; de Souza, B.; Neese, F.; Izsák, R.
     An improved chain of spheres for exchange algorithm
     J. Chem. Phys. 2021 155(10), 104109
     doi.org/10.1063/5.0058766
  6. Neese, F.
     The SHARK Integral Generation and Digestion System
     J. Comp. Chem. 2022 44(3), 381
     doi.org/10.1002/jcc.26942

List of suggested additional citations. These are papers that are important in the 'surrounding' of 
of this run, or papers that preceded the highly important papers. If you like your results we are grateful for a citation.

  1. Izsak, R.; Neese, F.
     An overlap fitted chain of spheres exchange method
     J. Chem. Phys. 2011 135 , 144105
     doi.org/10.1063/1.3646921
  2. Izsak, R.; Hansen, A.; Neese, F.
     The resolution of identity and chain of spheres approximations for the LPNO-CCSD singles Fock term
     Molec. Phys. 2012 110 , 2413-2417
     doi.org/10.1080/00268976.2012.687466
  3. Neese, F.
     The ORCA program system
     WIRES Comput. Molec. Sci. 2012 2(1), 73-78
     doi.org/10.1002/wcms.81
  4. Izsak, R.; Neese, F.; Klopper, W.
     Robust fitting techniques in the chain of spheres approximation to the Fock exchange: The role of the complementary space
     J. Chem. Phys. 2013 139 , 
     doi.org/10.1063/1.4819264
  5. Neese, F.
     Software update: the ORCA program system, version 4.0
     WIRES Comput. Molec. Sci. 2018 8(1), 1-6
     doi.org/10.1002/wcms.1327
  6. Neese, F.; Wennmohs, F.; Becker, U.; Riplinger, C.
     The ORCA quantum chemistry program package
     J. Chem. Phys. 2020 152(22), 224108
     doi.org/10.1063/5.0004608
  7. Neese, F.
     Software update: The ORCA program system—Version 5.0
     WIRES Comput. Molec. Sci. 2022 12(1), e1606
     doi.org/10.1002/wcms.1606

List of optional additional citations

  1. Neese, F.
     Approximate second-order SCF convergence for spin unrestricted wavefunctions
     Chem. Phys. Lett. 2000 325(1-3), 93-98
     doi.org/10.1016/s0009-2614(00)00662-x

Timings for individual modules:

Sum of individual times          ...     4000.748 sec (=  66.679 min)
Startup calculation              ...       11.599 sec (=   0.193 min)   0.3 %
SCF iterations                   ...     1481.227 sec (=  24.687 min)  37.0 %
Property integrals               ...        1.285 sec (=   0.021 min)   0.0 %
Property calculations            ...        2.357 sec (=   0.039 min)   0.1 %
CIS module                       ...     2504.280 sec (=  41.738 min)  62.6 %
                             ****ORCA TERMINATED NORMALLY****
TOTAL RUN TIME: 0 days 1 hours 6 minutes 42 seconds 893 msec
