
                                 *****************
                                 * O   R   C   A *
                                 *****************

                                            #,                                       
                                            ###                                      
                                            ####                                     
                                            #####                                    
                                            ######                                   
                                           ########,                                 
                                     ,,################,,,,,                         
                               ,,#################################,,                 
                          ,,##########################################,,             
                       ,#########################################, ''#####,          
                    ,#############################################,,   '####,        
                  ,##################################################,,,,####,       
                ,###########''''           ''''###############################       
              ,#####''   ,,,,##########,,,,          '''####'''          '####       
            ,##' ,,,,###########################,,,                        '##       
           ' ,,###''''                  '''############,,,                           
         ,,##''                                '''############,,,,        ,,,,,,###''
      ,#''                                            '''#######################'''  
     '                                                          ''''####''''         
             ,#######,   #######,   ,#######,      ##                                
            ,#'     '#,  ##    ##  ,#'     '#,    #''#        ,####,    ,#,          
            ##       ##  ##   ,#'  ##            #'  '#       #'       ,# #          
            ##       ##  #######   ##           ,######,      #####,      #          
            '#,     ,#'  ##    ##  '#,     ,#' ,#      #,     #,   #      #          
             '#######'   ##     ##  '#######'  #'      '#     '####' #    #          



                #########################################################
                #                        -***-                          #
                #          Department of theory and spectroscopy        #
                #                                                       #
                #                      Frank Neese                      #
                #                                                       #
                #     Directorship, Architecture, Infrastructure        #
                #                    SHARK, DRIVERS                     #
                #        Core code/Algorithms in most modules           #
                #                                                       #
                #        Max Planck Institute fuer Kohlenforschung      #
                #                Kaiser Wilhelm Platz 1                 #
                #                 D-45470 Muelheim/Ruhr                 #
                #                      Germany                          #
                #                                                       #
                #                  All rights reserved                  #
                #                        -***-                          #
                #########################################################


                         Program Version 6.1.1  -  RELEASE   -


 With contributions from (in alphabetic order):
[Max-Planck-Institut fuer Kohlenforschung]                               
  Daniel Aravena         : Magnetic Suceptibility                        
  Michael Atanasov       : Ab Initio Ligand Field Theory (pilot matlab implementation)
  Alexander A. Auer      : GIAO ZORA, VPT2 properties, NMR spectrum      
  Ute Becker             : All parallelization in ORCA, NUMFREQ, NUMCALC 
  Giovanni Bistoni       : ED, misc. LED, open-shell LED, HFLD           
  Dmytro Bykov           : pre 5.0 version of the SCF Hessian            
  Marcos Casanova-Páez   : Triplet and SCS-CIS(D). UHF-(DLPNO)-IP/EA/STEOM-CCSD. UHF-CVS-IP/STEOM-CCSD   
  Vijay G. Chilkuri      : MRCI spin determinant printing, contributions to CSF-ICE 
  Pauline Colinet        : FMM embedding                                 
  Dipayan Datta          : RHF DLPNO-CCSD density                        
  Achintya Kumar Dutta   : EOM-CC, STEOM-CC                              
  Nicolas Foglia         : Exact transition moments, OPA infrastructure, MCD improvements    
  Dmitry Ganyushin       : Spin-Orbit,Spin-Spin,Magnetic field MRCI      
  Miquel Garcia-Rates    : C-PCM and meta-GGA Hessian, CCSD/C-PCM, Gaussian charge scheme 
  Tiago L. C. Gouveia    : GS-ROHF, GS-ROCIS                             
  Yang Guo               : DLPNO-NEVPT2, F12-NEVPT2, CIM, IAO-localization        
  Andreas Hansen         : Spin unrestricted coupled pair/coupled cluster methods 
  Ingolf Harden          : AUTO-CI MPn and infrastructure                
  Benjamin Helmich-Paris : MC-RPA, TRAH-(SCF,CASSCF), AVAS, COSX integrals, SCF dyn. polar., MC-PDFT, srDFT 
  Lee Huntington         : MR-EOM, pCC                                   
  Robert Izsak           : Overlap fitted RIJCOSX, COSX-SCS-MP3, EOM     
  Riya Kayal             : Wick's Theorem for AUTO-CI, AUTO-CI UHF-CCSDT 
  Emily Kempfer          : AUTO-CI RHF CISDT and CCSDT, approximate NEVPT4
  Christian Kollmar      : KDIIS, OOCD, Brueckner-CCSD(T), CCSD density, CASPT2, CASPT2-K, improved NEVPT2 
  Axel Koslowski         : Symmetry handling                             
  Simone Kossmann        : meta-GGA functionals, TD-DFT gradient, OOMP2, (MP2 Hessian; deprecated post 5.0) 
  Lucas Lang             : DCDCAS, Hyperfine gauge corrections, ICE-SOC+SSC
  Marvin Lechner         : AUTO-CI (C++ implementation), FIC-MRCC        
  Spencer Leger          : CASSCF response                               
  Dagmar Lenk            : GEPOL surface, SMD, ORCA-2-JSON               
  Dimitrios Liakos       : Extrapolation schemes; Compound Job, Property file
  Dimitrios Manganas     : Further ROCIS development; embedding schemes. LFT, Crystal Embedding 
  Dimitrios Pantazis     : SARC Basis sets                               
  Anastasios Papadopoulos: AUTO-CI, single reference methods and gradients 
  Taras Petrenko         : pre 6.0 DFT Hessian and TD-DFT gradient,  ECA, NRVS 
  Petra Pikulova         : Analytic Raman intensities                    
  Peter Pinski           : DLPNO-MP2, DLPNO-MP2 Gradient                 
  Shashank Vittal Rao    : ES-AILFT, MagRelax                            
  Christoph Reimann      : Effective Core Potentials                     
  Marius Retegan         : Local ZFS, SOC                                
  Christoph Riplinger    : Optimizer, TS searches, QM/MM, DLPNO-CCSD(T), (RO)-DLPNO pert. Triples 
  Michael Roemelt        : Original ROCIS implementation, recursive CI coupling coefficients
  Masaaki Saitow         : Open-shell DLPNO-CCSD energy and density      
  Barbara Sandhoefer     : DKH picture change effects                    
  Yorick L. A. Schmerwitz: GMF and freeze-and-release deltaSCF, NEB S-IDPP initial path                    
  Kantharuban Sivalingam : CASSCF convergence/infrastructure, NEVPT2, NEVPT3, NEVPT4(SD), FIC-MRCI and CEPA variants
  Bernardo de Souza      : ESD, SOC TD-DFT                               
  Georgi L. Stoychev     : AutoAux, RI-MP2 NMR, DLPNO-MP2 response, X2C  
  Van Anh Tran           : RI-MP2 g-tensors                              
  Willem Van den Heuvel  : Paramagnetic NMR                              
  Zikuan Wang            : NOTCH, Electric field optimization            
  Frank Wennmohs         : Technical directorship and infrastructure     
  Hang Xu                : AUTO-CI-Response properties                   
                                                                         
[FACCTs GmbH]                                                            
  Markus Bursch, Nicolas Foglia, Miquel Garcia-Rates, Ingolf Harden, Hagen Neugebauer, Anastasios Papadopoulos, 
  Christoph Riplinger, Bernardo de Souza, Georgi L. Stoychev                                                    
                                                                 
  APM, various basis sets, CI-OPT, improved COSX, DLPNO-Multilevel,           
  DOCKER, DRACO, updates on ESD, Fragmentator, GOAT, IRC, LR-CPCM, L-BFGS, MBIS, meta-GGA TD-DFT gradient, ML-optimized integration grids, 
  MM, NACMEs, nearIR, NEB, NEB-TS, NL-DFT gradient (VV10), 2- and 3-layer-ONIOM, interface openCOSMO-RS, QMMM,   
  Crystal-QMMM, RESP, rigid body optimization, SF, symmetry and pop. for TD-DFT, various functionals, SOLVATOR                                   
                                                                         
[Other institutions]                                                     
  V. Asgeirsson          : NEB                                           
  Christoph Bannwarth    : sTDA-DFT, sTD-DFT, PBEh-3c, B97-3c, D3        
  Giovanni Bistoni       : ETS/NOCV, ADLD/ADEX, COVALED                  
  Martin Brehm           : Molecular dynamics                            
  Ronald Cardenas        : ETS/NOCV                                      
  Martina Colucci        : COVALED                                       
  Sebastian Ehlert       : rSCAN, r2SCAN, r2SCAN-3c, D4, dhf basis sets  
  Marvin Friede          : D4 for Fr, Ra, Ac-Lr                          
  Lars Goerigk           : TD-DFT with DH, B97 family of functionals     
  Stefan Grimme          : VdW corrections, initial TS optimization, DFT functionals, gCP, sTDA/sTD-DF 
  Waldemar Hujo          : DFT-NL                                        
  H. Jonsson             : NEB                                           
  Holger Kruse           : gCP                                           
  Marcel Mueller         : wB97X-3c, vDZP basis set                      
  Hagen Neugebauer       : wr2SCAN, Native XTB                           
  Gianluca Regni         : ADLD/ADEX                                     
  Tobias Risthaus        : pre 6.0 range-separated hybrid DFT and stability analysis
  Lukas Wittmann         : regularized MP2, r2SCAN double-hybrids, wr2SCAN        
                                                                         
We gratefully acknowledge several colleagues who have allowed us to      
interface, adapt or use parts of their codes:                            
  Ed Valeev, F. Pavosevic, A. Kumar             : LibInt (2-el integral package), F12 methods 
  Garnet Chan, S. Sharma, J. Yang, R. Olivares  : DMRG                   
  Ulf Ekstrom                                   : XCFun DFT Library      
  Mihaly Kallay                                 : mrcc  (arbitrary order and MRCC methods)
  Frank Weinhold                                : gennbo (NPA and NBO analysis)           
  Simon Mueller                                 : openCOSMO-RS                            
  Christopher J. Cramer and Donald G. Truhlar   : smd solvation model                     
  S Lehtola, MJT Oliveira, MAL Marques          : LibXC Library                           
  Liviu Ungur et al                             : ANISO software                          


 Your calculation uses the libint2 library for the computation of 2-el integrals
 For citations please refer to: http://libint.valeyev.net

 Your ORCA version has been built with support for libXC version: 7.0.0
 For citations please refer to: https://libxc.gitlab.io

 This ORCA versions uses:
   CBLAS   interface :  Fast vector & matrix operations
   LAPACKE interface :  Fast linear algebra routines
   Shared memory     :  Shared parallel matrices


  ***********************************
  * Starting time: Thu Jul 23 13:27:11 2026
  * Host name:     DESKTOP-19Q153E
  * Process ID:    28208
  * Working dir.:  C:\Users\ysm04\Documents\etc\uv_vis\molecules\dhhb\calculations\02_tddft_orca\dhhb\dhhb_c000\b3lyp_631+gd\none\dftopt
  ***********************************

NOTE: MaxCore=2500 MB was set to SCF,MP2,MDCI,CIPSI,MRCI,RASCI and CIS
      => If you want to overwrite this, your respective input block should be placed after the MaxCore statement
================================================================================

----- Orbital basis set information -----
Your calculation utilizes the basis: 6-31+G(d)
   H-He, Li-Ne : W. J. Hehre, R. Ditchfield and J.A. Pople, J. Chem. Phys. 56, 2257 (1972).
                 Note: He and Ne are unpublished basis sets taken from the Gaussian program.
                 Note: Li and B from J. D. Dill and J. A. Pople, J. Chem. Phys. 62, 2921 (1975).
   Na - Ar     : M. M. Francl, W. J. Pietro, W. J. Hehre, J. S. Binkley, M. S. Gordon, 
                 D. J. DeFrees and J. A. Pople, J. Chem. Phys. 77, 3654 (1982).
   K - Zn      : V. A. Rassolov, J. A. Pople, M. A. Ratner, and T. L. Windus, J. Chem. Phys. 109, 1223 (1998).
   Additional Pol./Diff. from the 6-311G equivalent.

----- AuxJ basis set information -----
Your calculation utilizes the auxiliary basis: def2/J
   H-Rn: F. Weigend, Phys. Chem. Chem. Phys. 8, 1057 (2006).
   Fr-Lr: K. Eichkorn, F. Weigend, O. Treutler, R. Ahlrichs; Theor. Chem. Acc. 97, 119 (1997).

================================================================================
                                        WARNINGS
                       Please study these warnings very carefully!
================================================================================


WARNING: CIS/ROCIS methods need fully converged wavefunctions
  ===> : Setting SCFConvForced true
         You can overwrite this default with %scf ConvForced false 


================================================================================
                                       INPUT FILE
================================================================================
NAME = td.inp
|  1> # dhhb / dhhb_c000 / b3lyp_631+gd / solvent=none
|  2> ! B3LYP 6-31+G(d) RIJCOSX def2/J TightSCF
|  3> %pal nprocs 4 end
|  4> %maxcore 2500
|  5> %scf
|  6>   MaxIter 300
|  7> end
|  8> %tddft
|  9>   nroots 22
| 10>   tda    true
| 11>   maxdim 5
| 12> end
| 13> * xyz 0 1
| 14> C      9.5261718999     2.7208034759     1.6177301841
| 15> C      9.0445719823     1.8643892892     0.4446025321
| 16> C      7.5759498836     1.4424462878     0.5587394159
| 17> C      7.0854451892     0.5880402419    -0.6146714059
| 18> C      5.6154078525     0.1738224609    -0.4902197906
| 19> C      5.1473788697    -0.6622640989    -1.6751284784
| 20> O      3.7358992751    -0.9567656889    -1.5912222216
| 21> C      3.3500364032    -2.0557929160    -0.9294354029
| 22> O      4.1221350598    -2.8365206144    -0.4088989363
| 23> C      1.8626464350    -2.2174148461    -0.9042985597
| 24> C      1.3261214158    -3.3485501121    -0.2657130569
| 25> C     -0.0520000697    -3.5411344471    -0.2181274050
| 26> C     -0.9257801778    -2.5915742836    -0.7796338974
| 27> C     -0.3860450790    -1.4659784064    -1.4260739458
| 28> C      0.9964476435    -1.2831997924    -1.4942540720
| 29> C     -2.4022540883    -2.8778234502    -0.7491140265
| 30> O     -2.7562313872    -4.0411953310    -1.0503603848
| 31> C     -3.3704158548    -1.8631913765    -0.3775765391
| 32> C     -3.0323088009    -0.5806068434     0.1315658125
| 33> C     -3.9796269441     0.3577219274     0.4780670831
| 34> C     -5.3805474431     0.0779892540     0.3322947555
| 35> C     -5.7357545853    -1.2072473795    -0.1510999882
| 36> C     -4.7727857760    -2.1602866327    -0.4827198481
| 37> O     -5.1887023909    -3.3582145546    -0.9091782097
| 38> N     -6.3268769373     1.0068874550     0.6613051138
| 39> C     -5.9749375669     2.3649671658     1.0872360378
| 40> C     -5.7628059400     2.5068546763     2.5965244252
| 41> C     -7.7602083018     0.7063638677     0.6058303965
| 42> C     -8.3938802912     0.9556790056    -0.7654861283
| 43> H      9.4273112628     2.1802110501     2.5747826487
| 44> H     10.5849910079     3.0056543398     1.5035431798
| 45> H      8.9374892014     3.6504643525     1.7018963811
| 46> H      9.6760874905     0.9603890334     0.3632456488
| 47> H      9.1893089514     2.4189692834    -0.5010297611
| 48> H      6.9423180702     2.3456348366     0.6406551278
| 49> H      7.4291098850     0.8839457455     1.5023897532
| 50> H      7.7164171920    -0.3163889518    -0.6968918291
| 51> H      7.2298957116     1.1465958705    -1.5582476049
| 52> H      5.4679980051    -0.4037149249     0.4386605598
| 53> H      4.9766286386     1.0714428862    -0.4151078362
| 54> H      5.7072625615    -1.6065152375    -1.7423311045
| 55> H      5.2625787672    -0.1094282424    -2.6187732515
| 56> H      2.0048198913    -4.0742030314     0.1868659705
| 57> H     -0.4655438483    -4.4295183871     0.2641649135
| 58> H     -1.0456382418    -0.7376858687    -1.9019839628
| 59> H      1.4057798784    -0.4118989226    -2.0070864936
| 60> H     -1.9814731288    -0.3290408896     0.2828767319
| 61> H     -3.6449225385     1.3092994117     0.8864917756
| 62> H     -6.7753068956    -1.5011066268    -0.2850439699
| 63> H     -4.3596138802    -3.9025402101    -1.0466263633
| 64> H     -5.0831176096     2.7017945353     0.5389191307
| 65> H     -6.7921586217     3.0287790371     0.7644126995
| 66> H     -6.6649258010     2.2057725279     3.1533723642
| 67> H     -4.9228831346     1.8854507694     2.9453969502
| 68> H     -5.5408364444     3.5561465046     2.8504418400
| 69> H     -8.2545465113     1.3359323482     1.3619517925
| 70> H     -7.9284018355    -0.3333272572     0.9243131085
| 71> H     -8.2645382662     2.0051635433    -1.0760765842
| 72> H     -9.4745738651     0.7430688311    -0.7266329770
| 73> H     -7.9465661675     0.3121213436    -1.5392322973
| 74> *
| 75> 
| 76>                          ****END OF INPUT****
================================================================================

                       ****************************
                       * Single Point Calculation *
                       ****************************

---------------------------------
CARTESIAN COORDINATES (ANGSTROEM)
---------------------------------
  C      9.526172    2.720803    1.617730
  C      9.044572    1.864389    0.444603
  C      7.575950    1.442446    0.558739
  C      7.085445    0.588040   -0.614671
  C      5.615408    0.173822   -0.490220
  C      5.147379   -0.662264   -1.675128
  O      3.735899   -0.956766   -1.591222
  C      3.350036   -2.055793   -0.929435
  O      4.122135   -2.836521   -0.408899
  C      1.862646   -2.217415   -0.904299
  C      1.326121   -3.348550   -0.265713
  C     -0.052000   -3.541134   -0.218127
  C     -0.925780   -2.591574   -0.779634
  C     -0.386045   -1.465978   -1.426074
  C      0.996448   -1.283200   -1.494254
  C     -2.402254   -2.877823   -0.749114
  O     -2.756231   -4.041195   -1.050360
  C     -3.370416   -1.863191   -0.377577
  C     -3.032309   -0.580607    0.131566
  C     -3.979627    0.357722    0.478067
  C     -5.380547    0.077989    0.332295
  C     -5.735755   -1.207247   -0.151100
  C     -4.772786   -2.160287   -0.482720
  O     -5.188702   -3.358215   -0.909178
  N     -6.326877    1.006887    0.661305
  C     -5.974938    2.364967    1.087236
  C     -5.762806    2.506855    2.596524
  C     -7.760208    0.706364    0.605830
  C     -8.393880    0.955679   -0.765486
  H      9.427311    2.180211    2.574783
  H     10.584991    3.005654    1.503543
  H      8.937489    3.650464    1.701896
  H      9.676087    0.960389    0.363246
  H      9.189309    2.418969   -0.501030
  H      6.942318    2.345635    0.640655
  H      7.429110    0.883946    1.502390
  H      7.716417   -0.316389   -0.696892
  H      7.229896    1.146596   -1.558248
  H      5.467998   -0.403715    0.438661
  H      4.976629    1.071443   -0.415108
  H      5.707263   -1.606515   -1.742331
  H      5.262579   -0.109428   -2.618773
  H      2.004820   -4.074203    0.186866
  H     -0.465544   -4.429518    0.264165
  H     -1.045638   -0.737686   -1.901984
  H      1.405780   -0.411899   -2.007086
  H     -1.981473   -0.329041    0.282877
  H     -3.644923    1.309299    0.886492
  H     -6.775307   -1.501107   -0.285044
  H     -4.359614   -3.902540   -1.046626
  H     -5.083118    2.701795    0.538919
  H     -6.792159    3.028779    0.764413
  H     -6.664926    2.205773    3.153372
  H     -4.922883    1.885451    2.945397
  H     -5.540836    3.556147    2.850442
  H     -8.254547    1.335932    1.361952
  H     -7.928402   -0.333327    0.924313
  H     -8.264538    2.005164   -1.076077
  H     -9.474574    0.743069   -0.726633
  H     -7.946566    0.312121   -1.539232

----------------------------
CARTESIAN COORDINATES (A.U.)
----------------------------
  NO LB      ZA    FRAG     MASS         X           Y           Z
   0 C     6.0000    0    12.011   18.001856    5.141573    3.057067
   1 C     6.0000    0    12.011   17.091764    3.523185    0.840177
   2 C     6.0000    0    12.011   14.316470    2.725828    1.055864
   3 C     6.0000    0    12.011   13.389551    1.111235   -1.161561
   4 C     6.0000    0    12.011   10.611583    0.328477   -0.926381
   5 C     6.0000    0    12.011    9.727136   -1.251498   -3.165534
   6 O     8.0000    0    15.999    7.059826   -1.808025   -3.006974
   7 C     6.0000    0    12.011    6.330651   -3.884886   -1.756378
   8 O     8.0000    0    15.999    7.789706   -5.360247   -0.772707
   9 C     6.0000    0    12.011    3.519892   -4.190307   -1.708877
  10 C     6.0000    0    12.011    2.506006   -6.327843   -0.502125
  11 C     6.0000    0    12.011   -0.098266   -6.691774   -0.412201
  12 C     6.0000    0    12.011   -1.749471   -4.897366   -1.473295
  13 C     6.0000    0    12.011   -0.729519   -2.770298   -2.694889
  14 C     6.0000    0    12.011    1.883013   -2.424896   -2.823731
  15 C     6.0000    0    12.011   -4.539602   -5.438298   -1.415620
  16 O     8.0000    0    15.999   -5.208522   -7.636752   -1.984893
  17 C     6.0000    0    12.011   -6.369163   -3.520921   -0.713516
  18 C     6.0000    0    12.011   -5.730233   -1.097188    0.248623
  19 C     6.0000    0    12.011   -7.520405    0.675996    0.903416
  20 C     6.0000    0    12.011  -10.167761    0.147378    0.627946
  21 C     6.0000    0    12.011  -10.839005   -2.281367   -0.285538
  22 C     6.0000    0    12.011   -9.019258   -4.082350   -0.912208
  23 O     8.0000    0    15.999   -9.805227   -6.346106   -1.718098
  24 N     7.0000    0    14.007  -11.956065    1.902742    1.249686
  25 C     6.0000    0    12.011  -11.290996    4.469140    2.054578
  26 C     6.0000    0    12.011  -10.890125    4.737269    4.906720
  27 C     6.0000    0    12.011  -14.664668    1.334834    1.144854
  28 C     6.0000    0    12.011  -15.862135    1.805972   -1.446559
  29 H     1.0000    0     1.008   17.815036    4.120002    4.865634
  30 H     1.0000    0     1.008   20.002734    5.679864    2.841285
  31 H     1.0000    0     1.008   16.889407    6.898378    3.216118
  32 H     1.0000    0     1.008   18.285155    1.814872    0.686435
  33 H     1.0000    0     1.008   17.365277    4.571189   -0.946809
  34 H     1.0000    0     1.008   13.119080    4.432607    1.210663
  35 H     1.0000    0     1.008   14.038983    1.670415    2.839105
  36 H     1.0000    0     1.008   14.581915   -0.597888   -1.316935
  37 H     1.0000    0     1.008   13.662523    2.166752   -2.944661
  38 H     1.0000    0     1.008   10.333019   -0.762911    0.828948
  39 H     1.0000    0     1.008    9.404465    2.024734   -0.784440
  40 H     1.0000    0     1.008   10.785163   -3.035874   -3.292529
  41 H     1.0000    0     1.008    9.944833   -0.206789   -4.948764
  42 H     1.0000    0     1.008    3.788561   -7.699128    0.353126
  43 H     1.0000    0     1.008   -0.879750   -8.370577    0.499199
  44 H     1.0000    0     1.008   -1.975970   -1.394024   -3.594229
  45 H     1.0000    0     1.008    2.656539   -0.778376   -3.792844
  46 H     1.0000    0     1.008   -3.744442   -0.621797    0.534560
  47 H     1.0000    0     1.008   -6.887905    2.474217    1.675227
  48 H     1.0000    0     1.008  -12.803475   -2.836680   -0.538655
  49 H     1.0000    0     1.008   -8.238476   -7.374732   -1.977837
  50 H     1.0000    0     1.008   -9.605700    5.105652    1.018410
  51 H     1.0000    0     1.008  -12.835320    5.723563    1.444531
  52 H     1.0000    0     1.008  -12.594884    4.168306    5.959010
  53 H     1.0000    0     1.008   -9.302901    3.562986    5.565994
  54 H     1.0000    0     1.008  -10.470663    6.720143    5.386554
  55 H     1.0000    0     1.008  -15.598832    2.524546    2.573716
  56 H     1.0000    0     1.008  -14.982508   -0.629897    1.746699
  57 H     1.0000    0     1.008  -15.617714    3.789210   -2.033490
  58 H     1.0000    0     1.008  -17.904350    1.404197   -1.373137
  59 H     1.0000    0     1.008  -15.016834    0.589824   -2.908727

--------------------------------
INTERNAL COORDINATES (ANGSTROEM)
--------------------------------
 C      0   0   0     0.000000000000     0.00000000     0.00000000
 C      1   0   0     1.530232736449     0.00000000     0.00000000
 C      2   1   0     1.532290440310   113.49408098     0.00000000
 C      3   2   1     1.532154529810   113.78777412   179.82616328
 C      4   3   2     1.532342763855   113.30747633   180.07156068
 C      5   4   3     1.523843975820   112.32197694   179.40601432
 O      6   5   4     1.444315094574   111.52194886   184.39959313
 C      7   6   5     1.339668912539   118.51935889   271.45107782
 O      8   7   6     1.215166773588   123.75746860   358.83412473
 C      8   7   6     1.496356383579   112.53264278   178.94834620
 C     10   8   7     1.405388747145   118.29692210   178.60398345
 C     11  10   8     1.392326092965   120.31302084   180.03449299
 C     12  11  10     1.407283099602   120.50393479   358.47354176
 C     13  12  11     1.405761285504   119.03612157     1.95762560
 C     14  13  12     1.396188625906   120.49456241   359.13317684
 C     13  12  11     1.504275658344   118.22466952   177.55675342
 O     16  13  12     1.252790257610   116.68972298   316.14153445
 C     16  13  12     1.450812033186   121.81012531   135.57776161
 C     18  16  13     1.420762259717   124.35390183   352.48297053
 C     19  18  16     1.377655863078   122.77605736   180.19431560
 C     20  19  18     1.435993796846   120.83874236   359.74633161
 C     21  20  19     1.418335572492   117.09327892     1.38890919
 C     22  21  20     1.394834928336   121.82150572   359.51241831
 O     23  22  21     1.337865714785   118.22619565   178.81703000
 N     21  20  19     1.366250048594   121.25456227   180.62921407
 C     25  21  20     1.466171536125   122.23949140     4.45472662
 C     26  25  21     1.530713339952   113.92653281   270.88031566
 C     25  21  20     1.465547908205   121.93039047   184.26841791
 C     28  25  21     1.531080415695   113.90906369   272.41240773
 H      1   2   3     1.103613617349   111.25299384    59.80777212
 H      1   2   3     1.102395840922   111.56070284   179.98001220
 H      1   2   3     1.103585345006   111.22591858   300.14426745
 H      2   1   3     1.105733802524   109.52484584   237.76976099
 H      2   1   3     1.105770407514   109.49504169   122.16997023
 H      3   2   1     1.106322291872   109.24739688    57.53036255
 H      3   2   1     1.106327618757   109.25417315   302.17624890
 H      4   3   2     1.105838158469   109.29060925    57.78279954
 H      4   3   2     1.105977570741   109.26595077   302.24623160
 H      5   4   3     1.103674680541   109.75134868   300.88603603
 H      5   4   3     1.104265872750   109.92181742    58.19817572
 H      6   5   4     1.099816418338   111.23662431    62.44849940
 H      6   5   4     1.099710852186   111.05306666   300.83581753
 H     11  10   8     1.091801976540   119.07638187   359.74005515
 H     12  11  10     1.092176891420   120.15759414   178.97426926
 H     14  13  12     1.091770811646   120.17345199   177.61687963
 H     15  14  13     1.090740655191   119.94263324   179.36285292
 H     19  18  16     1.091071048648   119.14630087   358.51262940
 H     20  19  18     1.088272703507   118.58496566   178.38887010
 H     22  21  20     1.088560174408   121.71676316   179.65471191
 H     24  23  22     1.001284261705   105.84911952   182.82185834
 H     26  25  21     1.099748582038   109.48201859    35.21939623
 H     26  25  21     1.101231747017   107.16092850   149.43100372
 H     27  26  25     1.102066391314   111.06579709   301.72537173
 H     27  26  25     1.101510405417   111.44878563    62.27445462
 H     27  26  25     1.102160537967   110.07892856   182.19843669
 H     28  25  21     1.101111394228   107.20785237   150.93207296
 H     28  25  21     1.100308110402   109.40878449    36.60239622
 H     29  28  25     1.102095089182   111.03277630   301.42143798
 H     29  28  25     1.102094031531   110.05043012   181.92058902
 H     29  28  25     1.101335336590   111.46879213    62.02027242

---------------------------
INTERNAL COORDINATES (A.U.)
---------------------------
 C      0   0   0     0.000000000000     0.00000000     0.00000000
 C      1   0   0     2.891720793050     0.00000000     0.00000000
 C      2   1   0     2.895609289811   113.49408098     0.00000000
 C      3   2   1     2.895352456187   113.78777412   179.82616328
 C      4   3   2     2.895708166982   113.30747633   180.07156068
 C      5   4   3     2.879647785126   112.32197694   179.40601432
 O      6   5   4     2.729359979834   111.52194886   184.39959313
 C      7   6   5     2.531607354827   118.51935889   271.45107782
 O      8   7   6     2.296332409123   123.75746860   358.83412473
 C      8   7   6     2.827703763709   112.53264278   178.94834620
 C     10   8   7     2.655799843799   118.29692210   178.60398345
 C     11  10   8     2.631115004816   120.31302084   180.03449299
 C     12  11  10     2.659379651143   120.50393479   358.47354176
 C     13  12  11     2.656503839272   119.03612157     1.95762560
 C     14  13  12     2.638414134259   120.49456241   359.13317684
 C     13  12  11     2.842669024194   118.22466952   177.55675342
 O     16  13  12     2.367430490127   116.68972298   316.14153445
 C     16  13  12     2.741637414519   121.81012531   135.57776161
 C     18  16  13     2.684851572277   124.35390183   352.48297053
 C     19  18  16     2.603392288009   122.77605736   180.19431560
 C     20  19  18     2.713635006048   120.83874236   359.74633161
 C     21  20  19     2.680265798009   117.09327892     1.38890919
 C     22  21  20     2.635856016582   121.82150572   359.51241831
 O     23  22  21     2.528199804906   118.22619565   178.81703000
 N     21  20  19     2.581838422299   121.25456227   180.62921407
 C     25  21  20     2.770662668627   122.23949140     4.45472662
 C     26  25  21     2.892629002050   113.92653281   270.88031566
 C     25  21  20     2.769484182648   121.93039047   184.26841791
 C     28  25  21     2.893322674674   113.90906369   272.41240773
 H      1   2   3     2.085527494455   111.25299384    59.80777212
 H      1   2   3     2.083226230516   111.56070284   179.98001220
 H      1   2   3     2.085474067470   111.22591858   300.14426745
 H      2   1   3     2.089534063789   109.52484584   237.76976099
 H      2   1   3     2.089603237196   109.49504169   122.16997023
 H      3   2   1     2.090646147489   109.24739688    57.53036255
 H      3   2   1     2.090656213844   109.25417315   302.17624890
 H      4   3   2     2.089731267946   109.29060925    57.78279954
 H      4   3   2     2.089994718960   109.26595077   302.24623160
 H      5   4   3     2.085642887165   109.75134868   300.88603603
 H      5   4   3     2.086760078533   109.92181742    58.19817572
 H      6   5   4     2.078351828249   111.23662431    62.44849940
 H      6   5   4     2.078152337132   111.05306666   300.83581753
 H     11  10   8     2.063206728135   119.07638187   359.74005515
 H     12  11  10     2.063915214582   120.15759414   178.97426926
 H     14  13  12     2.063147835021   120.17345199   177.61687963
 H     15  14  13     2.061201121445   119.94263324   179.36285292
 H     19  18  16     2.061825474596   119.14630087   358.51262940
 H     20  19  18     2.056537368650   118.58496566   178.38887010
 H     22  21  20     2.057080609925   121.71676316   179.65471191
 H     24  23  22     1.892153036828   105.84911952   182.82185834
 H     26  25  21     2.078223636220   109.48201859    35.21939623
 H     26  25  21     2.081026411842   107.16092850   149.43100372
 H     27  26  25     2.082603660983   111.06579709   301.72537173
 H     27  26  25     2.081552999902   111.44878563    62.27445462
 H     27  26  25     2.082781572374   110.07892856   182.19843669
 H     28  25  21     2.080798978032   107.20785237   150.93207296
 H     28  25  21     2.079280991593   109.40878449    36.60239622
 H     29  28  25     2.082657892093   111.03277630   301.42143798
 H     29  28  25     2.082655893422   110.05043012   181.92058902
 H     29  28  25     2.081222167766   111.46879213    62.02027242

---------------------
BASIS SET INFORMATION
---------------------
There are 4 groups of distinct atoms

 Group   1 Type C   : 11s5p1d contracted to 4s3p1d pattern {6311/311/1}
 Group   2 Type O   : 11s5p1d contracted to 4s3p1d pattern {6311/311/1}
 Group   3 Type N   : 11s5p1d contracted to 4s3p1d pattern {6311/311/1}
 Group   4 Type H   : 4s contracted to 2s pattern {31}

Atom   0C    basis set group =>   1
Atom   1C    basis set group =>   1
Atom   2C    basis set group =>   1
Atom   3C    basis set group =>   1
Atom   4C    basis set group =>   1
Atom   5C    basis set group =>   1
Atom   6O    basis set group =>   2
Atom   7C    basis set group =>   1
Atom   8O    basis set group =>   2
Atom   9C    basis set group =>   1
Atom  10C    basis set group =>   1
Atom  11C    basis set group =>   1
Atom  12C    basis set group =>   1
Atom  13C    basis set group =>   1
Atom  14C    basis set group =>   1
Atom  15C    basis set group =>   1
Atom  16O    basis set group =>   2
Atom  17C    basis set group =>   1
Atom  18C    basis set group =>   1
Atom  19C    basis set group =>   1
Atom  20C    basis set group =>   1
Atom  21C    basis set group =>   1
Atom  22C    basis set group =>   1
Atom  23O    basis set group =>   2
Atom  24N    basis set group =>   3
Atom  25C    basis set group =>   1
Atom  26C    basis set group =>   1
Atom  27C    basis set group =>   1
Atom  28C    basis set group =>   1
Atom  29H    basis set group =>   4
Atom  30H    basis set group =>   4
Atom  31H    basis set group =>   4
Atom  32H    basis set group =>   4
Atom  33H    basis set group =>   4
Atom  34H    basis set group =>   4
Atom  35H    basis set group =>   4
Atom  36H    basis set group =>   4
Atom  37H    basis set group =>   4
Atom  38H    basis set group =>   4
Atom  39H    basis set group =>   4
Atom  40H    basis set group =>   4
Atom  41H    basis set group =>   4
Atom  42H    basis set group =>   4
Atom  43H    basis set group =>   4
Atom  44H    basis set group =>   4
Atom  45H    basis set group =>   4
Atom  46H    basis set group =>   4
Atom  47H    basis set group =>   4
Atom  48H    basis set group =>   4
Atom  49H    basis set group =>   4
Atom  50H    basis set group =>   4
Atom  51H    basis set group =>   4
Atom  52H    basis set group =>   4
Atom  53H    basis set group =>   4
Atom  54H    basis set group =>   4
Atom  55H    basis set group =>   4
Atom  56H    basis set group =>   4
Atom  57H    basis set group =>   4
Atom  58H    basis set group =>   4
Atom  59H    basis set group =>   4
---------------------------------
AUXILIARY/J BASIS SET INFORMATION
---------------------------------
There are 4 groups of distinct atoms

 Group   1 Type C   : 12s5p4d2f1g contracted to 6s4p3d1f1g pattern {711111/2111/211/2/1}
 Group   2 Type O   : 12s5p4d2f1g contracted to 6s4p3d1f1g pattern {711111/2111/211/2/1}
 Group   3 Type N   : 12s5p4d2f1g contracted to 6s4p3d1f1g pattern {711111/2111/211/2/1}
 Group   4 Type H   : 5s2p1d contracted to 3s1p1d pattern {311/2/1}

Atom   0C    basis set group =>   1
Atom   1C    basis set group =>   1
Atom   2C    basis set group =>   1
Atom   3C    basis set group =>   1
Atom   4C    basis set group =>   1
Atom   5C    basis set group =>   1
Atom   6O    basis set group =>   2
Atom   7C    basis set group =>   1
Atom   8O    basis set group =>   2
Atom   9C    basis set group =>   1
Atom  10C    basis set group =>   1
Atom  11C    basis set group =>   1
Atom  12C    basis set group =>   1
Atom  13C    basis set group =>   1
Atom  14C    basis set group =>   1
Atom  15C    basis set group =>   1
Atom  16O    basis set group =>   2
Atom  17C    basis set group =>   1
Atom  18C    basis set group =>   1
Atom  19C    basis set group =>   1
Atom  20C    basis set group =>   1
Atom  21C    basis set group =>   1
Atom  22C    basis set group =>   1
Atom  23O    basis set group =>   2
Atom  24N    basis set group =>   3
Atom  25C    basis set group =>   1
Atom  26C    basis set group =>   1
Atom  27C    basis set group =>   1
Atom  28C    basis set group =>   1
Atom  29H    basis set group =>   4
Atom  30H    basis set group =>   4
Atom  31H    basis set group =>   4
Atom  32H    basis set group =>   4
Atom  33H    basis set group =>   4
Atom  34H    basis set group =>   4
Atom  35H    basis set group =>   4
Atom  36H    basis set group =>   4
Atom  37H    basis set group =>   4
Atom  38H    basis set group =>   4
Atom  39H    basis set group =>   4
Atom  40H    basis set group =>   4
Atom  41H    basis set group =>   4
Atom  42H    basis set group =>   4
Atom  43H    basis set group =>   4
Atom  44H    basis set group =>   4
Atom  45H    basis set group =>   4
Atom  46H    basis set group =>   4
Atom  47H    basis set group =>   4
Atom  48H    basis set group =>   4
Atom  49H    basis set group =>   4
Atom  50H    basis set group =>   4
Atom  51H    basis set group =>   4
Atom  52H    basis set group =>   4
Atom  53H    basis set group =>   4
Atom  54H    basis set group =>   4
Atom  55H    basis set group =>   4
Atom  56H    basis set group =>   4
Atom  57H    basis set group =>   4
Atom  58H    basis set group =>   4
Atom  59H    basis set group =>   4


           ************************************************************
           *        Program running with 4 parallel MPI-processes     *
           *              working on a common directory               *
           ************************************************************
------------------------------------------------------------------------------
                             ORCA STARTUP CALCULATIONS
                           -- RI-GTO INTEGRALS CHOSEN --
------------------------------------------------------------------------------
------------------------------------------------------------------------------
                   ___                                                        
                  /   \      - P O W E R E D   B Y -                         
                 /     \                                                     
                 |  |  |   _    _      __       _____    __    __             
                 |  |  |  | |  | |    /  \     |  _  \  |  |  /  |          
                  \  \/   | |  | |   /    \    | | | |  |  | /  /          
                 / \  \   | |__| |  /  /\  \   | |_| |  |  |/  /          
                |  |  |   |  __  | /  /__\  \  |    /   |      \           
                |  |  |   | |  | | |   __   |  |    \   |  |\   \          
                \     /   | |  | | |  |  |  |  | |\  \  |  | \   \       
                 \___/    |_|  |_| |__|  |__|  |_| \__\ |__|  \__/        
                                                                              
                      - O R C A' S   B I G   F R I E N D -                    
                                      &                                       
                       - I N T E G R A L  F E E D E R -                       
                                                                              
 v1 FN, 2020, v2 2021, v3 2022-2024                                           
------------------------------------------------------------------------------


----------------------
SHARK INTEGRAL PACKAGE
----------------------

Number of atoms                             ...     60
Number of basis functions                   ...    584
Number of shells                            ...    294
Maximum angular momentum                    ...      2
Integral batch strategy                     ... SHARK/LIBINT Hybrid
RI-J (if used) integral strategy            ... SPLIT-RIJ (Revised 2003 algorithm where possible)
Printlevel                                  ...      1
Contraction scheme used                     ... SEGMENTED contraction
Prescreening option                         ... SCHWARTZ
   Thresh                                   ... 2.500e-11
   Tcut                                     ... 2.500e-12
   Tpresel                                  ... 2.500e-12 
Coulomb Range Separation                    ... NOT USED
Exchange Range Separation                   ... NOT USED
Multipole approximations                    ... NOT USED
Finite Nucleus Model                        ... NOT USED
CABS basis                                  ... NOT available
Auxiliary Coulomb fitting basis             ... AVAILABLE
   # of basis functions in Aux-J            ...   1762
   # of shells in Aux-J                     ...    590
   Maximum angular momentum in Aux-J        ...      4
Auxiliary J/K fitting basis                 ... NOT available
Auxiliary Correlation fitting basis         ... NOT available
Auxiliary 'external' fitting basis          ... NOT available

Checking pre-screening integrals            ... done (  0.0 sec) Dimension = 294
   => SHARK Basis and OBASIS are compatible. Storing Pre-screening
Shell pair information
Shell pair cut-off parameter TPreSel        ...   2.5e-12
Total number of shell pairs                 ...     43365
Shell pairs after pre-screening             ...     27081
Total number of primitive shell pairs       ...    191355
Primitive shell pairs kept                  ...     70759
          la=0 lb=0:   9047 shell pairs
          la=1 lb=0:  10655 shell pairs
          la=1 lb=1:   3056 shell pairs
          la=2 lb=0:   2512 shell pairs
          la=2 lb=1:   1633 shell pairs
          la=2 lb=2:    178 shell pairs

Checking whether 4 symmetric matrices of dimension 584 fit in memory
:Max Core in MB      =   2500.00
 MB in use           =     30.38
 MB left             =   2469.62
 MB needed           =      5.21
 Data fit in memory  = YES
Calculating RI/J V-Matrix + Cholesky decomp.... done (  0.6 sec)
Calculating Nuclear repulsion               ... done (  0.0 sec) ENN=   2505.210474003070 Eh

Diagonalization of the overlap matrix:
Smallest eigenvalue                        ... 1.799e-07
Time for diagonalization                   ...    0.097 sec
Threshold for overlap eigenvalues          ... 1.000e-07
Number of eigenvalues below threshold      ... 0

IMPORTANT:
Smallest eigenvalue of S below the DiffSThresh (1.000e-06) while
Thresh>1e-12 and/or TCut>1e-13! In order to avoid SCF convergence issues,
Thresh will be set to at least 1e-12 and TCut to at least 1e-13.
This can be turned off by adding %SCF DiffSThresh -1 END to the input.

Time for construction of square roots      ...    0.071 sec
Total time needed                          ...    0.175 sec

-------------------
DFT GRID GENERATION
-------------------

General Integration Accuracy     IntAcc      ... 4.388
Radial Grid Type                 RadialGrid  ... OptM3 with GC (2021)
Angular Grid (max. ang.)         AngularGrid ... 4 (Lebedev-302)
Angular grid pruning method      GridPruning ... 4 (adaptive)
Weight generation scheme         WeightScheme... mBecke (2022)
Basis function cutoff            BFCut       ... 1.0000e-11
Integration weight cutoff        WCut        ... 1.0000e-14
Partially contracted basis set               ... off
Rotationally invariant grid construction     ... off
Angular grids for H and He will be reduced by one unit
Diffuse basis detected: some atoms will have their outermost
                        angular grid increased by 1.

Total number of grid points                  ...   279166
Total number of batches                      ...     4389
Average number of points per batch           ...       63
Average number of grid points per atom       ...     4653

--------------------
COSX GRID GENERATION
--------------------

GRIDX 1
-------
General Integration Accuracy     IntAcc      ... 3.816
Radial Grid Type                 RadialGrid  ... OptM3 with GC (2021)
Angular Grid (max. ang.)         AngularGrid ... 1 (Lebedev-50)
Angular grid pruning method      GridPruning ... 4 (adaptive)
Weight generation scheme         WeightScheme... mBecke (2022)
Basis function cutoff            BFCut       ... 1.0000e-11
Integration weight cutoff        WCut        ... 1.0000e-14
Partially contracted basis set               ... on
Rotationally invariant grid construction     ... off
Angular grids for H and He will be reduced by one unit
Diffuse basis detected: some atoms will have their outermost
                        angular grid increased by 1.

Total number of grid points                  ...    35612
Total number of batches                      ...      317
Average number of points per batch           ...      112
Average number of grid points per atom       ...      594
UseSFitting                                  ... on

GRIDX 2
-------
General Integration Accuracy     IntAcc      ... 4.020
Radial Grid Type                 RadialGrid  ... OptM3 with GC (2021)
Angular Grid (max. ang.)         AngularGrid ... 2 (Lebedev-110)
Angular grid pruning method      GridPruning ... 4 (adaptive)
Weight generation scheme         WeightScheme... mBecke (2022)
Basis function cutoff            BFCut       ... 1.0000e-11
Integration weight cutoff        WCut        ... 1.0000e-14
Partially contracted basis set               ... on
Rotationally invariant grid construction     ... off
Angular grids for H and He will be reduced by one unit
Diffuse basis detected: some atoms will have their outermost
                        angular grid increased by 1.

Total number of grid points                  ...    81213
Total number of batches                      ...      667
Average number of points per batch           ...      121
Average number of grid points per atom       ...     1354
UseSFitting                                  ... on

GRIDX 3
-------
General Integration Accuracy     IntAcc      ... 4.338
Radial Grid Type                 RadialGrid  ... OptM3 with GC (2021)
Angular Grid (max. ang.)         AngularGrid ... 3 (Lebedev-194)
Angular grid pruning method      GridPruning ... 4 (adaptive)
Weight generation scheme         WeightScheme... mBecke (2022)
Basis function cutoff            BFCut       ... 1.0000e-11
Integration weight cutoff        WCut        ... 1.0000e-14
Partially contracted basis set               ... on
Rotationally invariant grid construction     ... off
Angular grids for H and He will be reduced by one unit
Diffuse basis detected: some atoms will have their outermost
                        angular grid increased by 1.

Total number of grid points                  ...   174835
Total number of batches                      ...     1399
Average number of points per batch           ...      124
Average number of grid points per atom       ...     2914
UseSFitting                                  ... on
Grids setup in  13.7 sec
Initializing property integral containers    ... done (  0.2 sec)

SHARK setup successfully completed in  16.0 seconds

Maximum memory used throughout the entire STARTUP-calculation: 89.9 MB


           ************************************************************
           *        Program running with 4 parallel MPI-processes     *
           *              working on a common directory               *
           ************************************************************
-------------------------------------------------------------------------------
                                 ORCA GUESS
                   Start orbitals & Density for SCF / CASSCF
-------------------------------------------------------------------------------

------------
SCF SETTINGS
------------
Hamiltonian:
 Density Functional     Method          .... DFT(GTOs)
 Exchange Functional    Exchange        .... B88
   X-Alpha parameter    XAlpha          ....  0.666667
   Becke's b parameter  XBeta           ....  0.004200
 Correlation Functional Correlation     .... LYP
 LDA part of GGA corr.  LDAOpt          .... VWN-5
 Gradients option       PostSCFGGA      .... off
 Hybrid DFT is turned on
   Fraction HF Exchange ScalHFX         ....  0.200000
   Scaling of DF-GGA-X  ScalDFX         ....  0.720000
   Scaling of DF-GGA-C  ScalDFC         ....  0.810000
   Scaling of DF-LDA-C  ScalLDAC        ....  1.000000
   Perturbative correction              ....  0.000000
   NL short-range parameter             ....  4.800000
 RI-approximation to the Coulomb term is turned on
   Number of AuxJ basis functions       .... 1762
   RIJ-COSX (HFX calculated with COS-X)).... on


General Settings:
 Integral files         IntName         .... td
 Hartree-Fock type      HFTyp           .... RHF
 Total Charge           Charge          ....    0
 Multiplicity           Mult            ....    1
 Number of Electrons    NEL             ....  214
 Basis Dimension        Dim             ....  584
 Nuclear Repulsion      ENuc            ....   2505.2104740031 Eh

Convergence Acceleration:
 AO-DIIS                CNVDIIS         .... on
   Start iteration      DIISMaxIt       ....    12
   Startup error        DIISStart       ....  0.200000
   # of expansion vecs  DIISMaxEq       ....     5
   Bias factor          DIISBfac        ....   1.050
   Max. coefficient     DIISMaxC        ....  10.000
 MO-DIIS                CNVKDIIS        .... off
 Trust-Rad. Augm. Hess. CNVTRAH         .... auto
   Auto Start mean grad. ratio tolernc. ....  1.125000
   Auto Start start iteration           ....    50
   Auto Start num. interpolation iter.  ....    10
   Max. Number of Micro iterations      ....    24
   Max. Number of Macro iterations      .... Maxiter - #DIIS iter
   Number of Davidson start vectors     ....     2
   Converg. threshold    (grad. norm)   ....   1.000e-05
   Grad. Scal. Fac. for Micro threshold ....   0.100
   Minimum threshold for Micro iter.    ....   1.000e-02
   NR start threshold (gradient norm)   ....   1.000e-04
   Initial trust radius                 ....   0.400
   Minimum AH scaling param. (alpha)    ....   1.000
   Maximum AH scaling param. (alpha)    .... 1000.000
   Quad. conv. algorithm                .... NR
   White noise on init. David. guess    .... on
   Maximum white noise                  ....   0.010
   Pseudo random numbers                .... off
   Inactive MOs                         .... canonical
   Orbital update algorithm             .... Taylor
   Preconditioner                       .... Diag
   Full preconditioner red. dimension   ....   250
 SOSCF                 CNVSOSCF           .... on
   Start iteration     SOSCFMaxIt         ....   150
   Startup grad/error  SOSCFStart         ....  0.003300
   Hessian update      SOSCFHessUp        .... L-BFGS
   Autom. constraints  SOSCFAutoConstrain .... off
 Level Shifting         CNVShift        .... on
   Level shift para.    LevelShift      ....    0.2500
   Turn off err/grad.   ShiftErr        ....    0.0010
 Zerner damping         CNVZerner       .... off
 Static damping         CNVDamp         .... on
   Fraction old density DampFac         ....    0.7000
   Max. Damping (<1)    DampMax         ....    0.9800
   Min. Damping (>=0)   DampMin         ....    0.0000
   Turn off err/grad.   DampErr         ....    0.1000

SCF Procedure:
 Maximum # iterations   MaxIter         ....   300
 SCF integral mode      SCFMode         .... Direct
   Integral package                     .... SHARK and LIBINT hybrid scheme
 Reset frequency        DirectResetFreq ....    20
 Integral Threshold     Thresh          ....  1.000e-12 Eh
 Primitive CutOff       TCut            ....  1.000e-13 Eh

Convergence Tolerance:
 Convergence Check Mode ConvCheckMode   .... Total+1el-Energy
 Convergence forced     ConvForced      .... 1
 Energy Change          TolE            ....  1.000e-08 Eh
 1-El. energy change                    ....  1.000e-05 Eh
 Orbital Gradient       TolG            ....  1.000e-05
 Orbital Rotation angle TolX            ....  1.000e-05
 DIIS Error             TolErr          ....  5.000e-07

------------------------------
INITIAL GUESS: MODEL POTENTIAL
------------------------------
Loading Hartree-Fock densities                     ... done
Calculating cut-offs                               ... done
Initializing the effective Hamiltonian             ... done
Setting up the integral package (SHARK)            ... done
Starting the Coulomb interaction                   ... done (   3.2 sec)
Making the grid                                    ... done (   2.0 sec)
Mapping shells                                     ... done
Starting the XC term evaluation                    ... done (   2.4 sec)
  promolecular density results
     # of electrons  =    213.971939330
     EX              =   -171.984160358
     EC              =     -7.204654794
     EX+EC           =   -179.188815152
Transforming the Hamiltonian                       ... done (   0.1 sec)
Diagonalizing the Hamiltonian                      ... done (   0.1 sec)
Back transforming the eigenvectors                 ... done (   0.0 sec)
Now organizing SCF variables                       ... done
                      ------------------
                      INITIAL GUESS DONE (   8.0 sec)
                      ------------------
             **** ENERGY FILE WAS UPDATED (td.en.tmp) ****
Finished Guess after   8.7 sec
Maximum memory used throughout the entire GUESS-calculation: 41.4 MB


           ************************************************************
           *        Program running with 4 parallel MPI-processes     *
           *              working on a common directory               *
           ************************************************************

-------------------------------------------------------------------------------------------
                                      ORCA LEAN-SCF
                              memory conserving SCF solver
-------------------------------------------------------------------------------------------

----------------------------------------D-I-I-S--------------------------------------------
Iteration    Energy (Eh)           Delta-E    RMSDP     MaxDP     DIISErr   Damp  Time(sec)
-------------------------------------------------------------------------------------------
               ***  Starting incremental Fock matrix formation  ***
    1    -1287.3897438180347308     0.00e+00  9.41e-02  5.35e+00  2.61e-01  0.700  69.9
    2    -1287.7434886537548664    -3.54e-01  7.02e-02  3.83e+00  9.62e-02  0.700  36.4
                               ***Turning on AO-DIIS***
    3    -1287.8829868210686982    -1.39e-01  2.81e-02  1.15e+00  3.41e-02  0.700  33.2
    4    -1287.9668394002060268    -8.39e-02  4.98e-02  2.00e+00  1.77e-02  0.000  36.1
    5    -1288.1498209348419550    -1.83e-01  2.05e-02  1.17e+00  5.29e-03  0.000  33.3
                              *** Initializing SOSCF ***
---------------------------------------S-O-S-C-F--------------------------------------
Iteration    Energy (Eh)           Delta-E    RMSDP     MaxDP     MaxGrad    Time(sec)
--------------------------------------------------------------------------------------
    6    -1288.1507953112641189    -9.74e-04  7.34e-03  3.76e-01  2.01e-03    34.3
               *** Restarting incremental Fock matrix formation ***
    7    -1288.1508145431703269    -1.92e-05  2.82e-02  2.63e+00  2.31e-04    73.3
    8    -1288.1508031872217543     1.14e-05  3.48e-03  2.77e-01  6.45e-04    57.9
    9    -1288.1508284047531561    -2.52e-05  4.58e-03  3.88e-01  8.77e-05    54.9
   10    -1288.1508277532839202     6.51e-07  1.09e-03  9.44e-02  9.36e-05    54.8
   11    -1288.1508293779261294    -1.62e-06  8.95e-04  4.19e-02  2.47e-05    45.3
   12    -1288.1508293173947095     6.05e-08  7.05e-04  6.25e-02  3.15e-05    51.9
   13    -1288.1508294216696413    -1.04e-07  7.17e-04  3.58e-02  4.34e-06    42.2
   14    -1288.1508294055843180     1.61e-08  7.18e-04  5.52e-02  7.23e-06    42.9
   15    -1288.1508294361519802    -3.06e-08  2.70e-03  2.48e-01  1.29e-06    36.0
                  *** Gradient check signals convergence ***

               *****************************************************
               *                     SUCCESS                       *
               *           SCF CONVERGED AFTER  15 CYCLES          *
               *****************************************************

Recomputing exchange energy using gridx3       ... done (  128.052 sec)
Old exchange energy                            :    -34.981845269 Eh
New exchange energy                            :    -34.981874356 Eh
Exchange energy change after final integration :     -0.000029088 Eh
Total energy after final integration           :  -1288.150858529 Eh
             **** ENERGY FILE WAS UPDATED (td.en.tmp) ****

----------------
TOTAL SCF ENERGY
----------------

Total Energy       :      -1288.15085852932316 Eh          -35052.36689 eV

Components:
Nuclear Repulsion  :       2505.21047400306952 Eh           68170.24271 eV
Electronic Energy  :      -3793.36130344459070 Eh         -103222.60880 eV
One Electron Energy:      -6727.58200279013909 Eh         -183066.81323 eV
Two Electron Energy:       2934.22069934554838 Eh           79844.20443 eV

Virial components:
Potential Energy   :      -2568.24228849321844 Eh          -69885.42558 eV
Kinetic Energy     :       1280.09142996389528 Eh           34833.05869 eV
Virial Ratio       :          2.00629597884712

DFT components:
N(Alpha)           :      107.000186456653 electrons
N(Beta)            :      107.000186456653 electrons
N(Total)           :      214.000372913306 electrons
E(X)               :     -138.916280068612 Eh       
E(C)               :       -8.485456766669 Eh       
E(XC)              :     -147.401736835281 Eh       

---------------
SCF CONVERGENCE
---------------

  Last Energy change         ...    3.0568e-08  Tolerance :   1.0000e-08
  Last MAX-Density change    ...    2.4806e-01  Tolerance :   1.0000e-07
  Last RMS-Density change    ...    2.7047e-03  Tolerance :   5.0000e-09
  Last DIIS Error            ...    2.0073e-03  Tolerance :   5.0000e-07
  Last Orbital Gradient      ...    1.2908e-06  Tolerance :   1.0000e-05
  Last Orbital Rotation      ...    6.1061e-06  Tolerance :   1.0000e-05


----------------
ORBITAL ENERGIES
----------------

  NO   OCC          E(Eh)            E(eV) 
   0   2.0000     -19.195516      -522.3365 
   1   2.0000     -19.159974      -521.3694 
   2   2.0000     -19.141112      -520.8561 
   3   2.0000     -19.138355      -520.7811 
   4   2.0000     -14.371916      -391.0797 
   5   2.0000     -10.319485      -280.8075 
   6   2.0000     -10.277811      -279.6735 
   7   2.0000     -10.258907      -279.1591 
   8   2.0000     -10.250184      -278.9217 
   9   2.0000     -10.240596      -278.6608 
  10   2.0000     -10.234178      -278.4861 
  11   2.0000     -10.231887      -278.4238 
  12   2.0000     -10.210722      -277.8479 
  13   2.0000     -10.210647      -277.8458 
  14   2.0000     -10.203773      -277.6588 
  15   2.0000     -10.203249      -277.6445 
  16   2.0000     -10.202504      -277.6242 
  17   2.0000     -10.199631      -277.5461 
  18   2.0000     -10.199075      -277.5310 
  19   2.0000     -10.190917      -277.3089 
  20   2.0000     -10.189562      -277.2721 
  21   2.0000     -10.187464      -277.2150 
  22   2.0000     -10.186866      -277.1987 
  23   2.0000     -10.183982      -277.1202 
  24   2.0000     -10.183491      -277.1069 
  25   2.0000     -10.178893      -276.9818 
  26   2.0000     -10.178711      -276.9768 
  27   2.0000     -10.178394      -276.9682 
  28   2.0000     -10.170309      -276.7482 
  29   2.0000      -1.110717       -30.2241 
  30   2.0000      -1.064781       -28.9742 
  31   2.0000      -1.029711       -28.0198 
  32   2.0000      -1.020642       -27.7731 
  33   2.0000      -0.970491       -26.4084 
  34   2.0000      -0.872139       -23.7321 
  35   2.0000      -0.851039       -23.1580 
  36   2.0000      -0.814976       -22.1766 
  37   2.0000      -0.793491       -21.5920 
  38   2.0000      -0.788162       -21.4470 
  39   2.0000      -0.780313       -21.2334 
  40   2.0000      -0.768772       -20.9194 
  41   2.0000      -0.759183       -20.6584 
  42   2.0000      -0.745470       -20.2853 
  43   2.0000      -0.733496       -19.9595 
  44   2.0000      -0.723215       -19.6797 
  45   2.0000      -0.678291       -18.4572 
  46   2.0000      -0.664363       -18.0782 
  47   2.0000      -0.657629       -17.8950 
  48   2.0000      -0.641832       -17.4651 
  49   2.0000      -0.618892       -16.8409 
  50   2.0000      -0.605157       -16.4672 
  51   2.0000      -0.601924       -16.3792 
  52   2.0000      -0.597522       -16.2594 
  53   2.0000      -0.582900       -15.8615 
  54   2.0000      -0.579223       -15.7614 
  55   2.0000      -0.562428       -15.3044 
  56   2.0000      -0.543377       -14.7860 
  57   2.0000      -0.534795       -14.5525 
  58   2.0000      -0.519988       -14.1496 
  59   2.0000      -0.507077       -13.7983 
  60   2.0000      -0.494691       -13.4612 
  61   2.0000      -0.488217       -13.2850 
  62   2.0000      -0.481127       -13.0921 
  63   2.0000      -0.471195       -12.8219 
  64   2.0000      -0.468965       -12.7612 
  65   2.0000      -0.464366       -12.6360 
  66   2.0000      -0.458882       -12.4868 
  67   2.0000      -0.454118       -12.3572 
  68   2.0000      -0.453467       -12.3395 
  69   2.0000      -0.446116       -12.1394 
  70   2.0000      -0.441880       -12.0242 
  71   2.0000      -0.436461       -11.8767 
  72   2.0000      -0.433626       -11.7996 
  73   2.0000      -0.429447       -11.6858 
  74   2.0000      -0.428027       -11.6472 
  75   2.0000      -0.419809       -11.4236 
  76   2.0000      -0.417527       -11.3615 
  77   2.0000      -0.413994       -11.2653 
  78   2.0000      -0.406881       -11.0718 
  79   2.0000      -0.402385       -10.9495 
  80   2.0000      -0.398471       -10.8429 
  81   2.0000      -0.396833       -10.7984 
  82   2.0000      -0.389413       -10.5965 
  83   2.0000      -0.388395       -10.5688 
  84   2.0000      -0.381454       -10.3799 
  85   2.0000      -0.375926       -10.2295 
  86   2.0000      -0.373727       -10.1696 
  87   2.0000      -0.368088       -10.0162 
  88   2.0000      -0.364256        -9.9119 
  89   2.0000      -0.362424        -9.8621 
  90   2.0000      -0.358708        -9.7609 
  91   2.0000      -0.354526        -9.6471 
  92   2.0000      -0.348821        -9.4919 
  93   2.0000      -0.347914        -9.4672 
  94   2.0000      -0.341894        -9.3034 
  95   2.0000      -0.335415        -9.1271 
  96   2.0000      -0.334172        -9.0933 
  97   2.0000      -0.329572        -8.9681 
  98   2.0000      -0.325460        -8.8562 
  99   2.0000      -0.300202        -8.1689 
 100   2.0000      -0.295443        -8.0394 
 101   2.0000      -0.281521        -7.6606 
 102   2.0000      -0.271541        -7.3890 
 103   2.0000      -0.265498        -7.2246 
 104   2.0000      -0.255808        -6.9609 
 105   2.0000      -0.229857        -6.2547 
 106   2.0000      -0.209419        -5.6986 
 107   0.0000      -0.073849        -2.0095 
 108   0.0000      -0.040024        -1.0891 
 109   0.0000      -0.020812        -0.5663 
 110   0.0000      -0.010182        -0.2771 
 111   0.0000      -0.002755        -0.0750 
 112   0.0000       0.003786         0.1030 
 113   0.0000       0.008860         0.2411 
 114   0.0000       0.012533         0.3411 
 115   0.0000       0.015652         0.4259 
 116   0.0000       0.018556         0.5049 
 117   0.0000       0.020457         0.5567 
*Only the first 10 virtual orbitals were printed.

                    ********************************
                    * MULLIKEN POPULATION ANALYSIS *
                    ********************************

-----------------------
MULLIKEN ATOMIC CHARGES
-----------------------
   0 C :   -0.907425
   1 C :   -0.189483
   2 C :   -0.412400
   3 C :   -0.186318
   4 C :   -0.179141
   5 C :   -0.382318
   6 O :   -0.200142
   7 C :    0.460580
   8 O :   -0.467506
   9 C :    0.017433
  10 C :   -0.104083
  11 C :   -0.390621
  12 C :    0.515931
  13 C :   -0.663457
  14 C :    0.023626
  15 C :   -0.049864
  16 O :   -0.491433
  17 C :    0.751096
  18 C :   -1.451740
  19 C :   -0.164159
  20 C :    0.204274
  21 C :    0.384080
  22 C :   -0.166743
  23 O :   -0.684165
  24 N :   -0.057447
  25 C :   -0.339300
  26 C :   -0.591261
  27 C :   -0.308714
  28 C :   -0.601694
  29 H :    0.199534
  30 H :    0.196176
  31 H :    0.197762
  32 H :    0.191477
  33 H :    0.189142
  34 H :    0.190660
  35 H :    0.194928
  36 H :    0.199836
  37 H :    0.192283
  38 H :    0.221814
  39 H :    0.202736
  40 H :    0.228756
  41 H :    0.197145
  42 H :    0.217923
  43 H :    0.207577
  44 H :    0.203183
  45 H :    0.209013
  46 H :    0.200476
  47 H :    0.165220
  48 H :    0.179466
  49 H :    0.562262
  50 H :    0.199674
  51 H :    0.204793
  52 H :    0.207972
  53 H :    0.221178
  54 H :    0.204710
  55 H :    0.203217
  56 H :    0.205980
  57 H :    0.205212
  58 H :    0.205705
  59 H :    0.226585
Sum of atomic charges:    0.0000000

--------------------------------
MULLIKEN REDUCED ORBITAL CHARGES
--------------------------------
  0 C s       :     3.755223  s :     3.755223
      pz      :     0.985589  p :     3.117800
      px      :     1.091005
      py      :     1.041206
      dz2     :     0.010051  d :     0.034403
      dxz     :     0.002314
      dyz     :     0.007821
      dx2y2   :     0.006731
      dxy     :     0.007487

  1 C s       :     3.295192  s :     3.295192
      pz      :     0.933645  p :     2.853872
      px      :     0.910678
      py      :     1.009549
      dz2     :     0.009889  d :     0.040418
      dxz     :     0.004726
      dyz     :     0.008929
      dx2y2   :     0.006187
      dxy     :     0.010688

  2 C s       :     3.513247  s :     3.513247
      pz      :     0.941590  p :     2.858879
      px      :     0.897397
      py      :     1.019893
      dz2     :     0.009670  d :     0.040274
      dxz     :     0.004877
      dyz     :     0.009019
      dx2y2   :     0.005979
      dxy     :     0.010728

  3 C s       :     3.464007  s :     3.464007
      pz      :     0.949374  p :     2.682114
      px      :     0.735980
      py      :     0.996761
      dz2     :     0.009896  d :     0.040197
      dxz     :     0.004676
      dyz     :     0.008841
      dx2y2   :     0.006224
      dxy     :     0.010561

  4 C s       :     3.396947  s :     3.396947
      pz      :     0.917574  p :     2.742885
      px      :     0.805490
      py      :     1.019820
      dz2     :     0.009029  d :     0.039310
      dxz     :     0.004791
      dyz     :     0.009458
      dx2y2   :     0.005826
      dxy     :     0.010206

  5 C s       :     3.687305  s :     3.687305
      pz      :     0.983327  p :     2.633243
      px      :     0.603181
      py      :     1.046736
      dz2     :     0.013275  d :     0.061770
      dxz     :     0.009297
      dyz     :     0.009816
      dx2y2   :     0.014822
      dxy     :     0.014560

  6 O s       :     3.678531  s :     3.678531
      pz      :     1.655220  p :     4.493681
      px      :     1.342843
      py      :     1.495619
      dz2     :     0.004669  d :     0.027930
      dxz     :     0.003674
      dyz     :     0.005769
      dx2y2   :     0.009167
      dxy     :     0.004651

  7 C s       :     3.094921  s :     3.094921
      pz      :     0.747096  p :     2.315710
      px      :     0.863534
      py      :     0.705081
      dz2     :     0.018751  d :     0.128789
      dxz     :     0.017120
      dyz     :     0.024073
      dx2y2   :     0.042411
      dxy     :     0.026433

  8 O s       :     3.959005  s :     3.959005
      pz      :     1.441481  p :     4.481865
      px      :     1.553490
      py      :     1.486894
      dz2     :     0.005037  d :     0.026636
      dxz     :     0.005014
      dyz     :     0.004392
      dx2y2   :     0.006075
      dxy     :     0.006118

  9 C s       :     2.888468  s :     2.888468
      pz      :     0.971043  p :     3.055989
      px      :     1.008914
      py      :     1.076032
      dz2     :     0.005651  d :     0.038110
      dxz     :     0.005367
      dyz     :     0.005786
      dx2y2   :     0.012310
      dxy     :     0.008996

 10 C s       :     3.062683  s :     3.062683
      pz      :     0.951909  p :     3.005336
      px      :     1.009913
      py      :     1.043515
      dz2     :     0.003613  d :     0.036064
      dxz     :     0.007231
      dyz     :     0.005003
      dx2y2   :     0.008624
      dxy     :     0.011593

 11 C s       :     3.573156  s :     3.573156
      pz      :     1.021179  p :     2.781494
      px      :     0.760733
      py      :     0.999583
      dz2     :     0.003222  d :     0.035970
      dxz     :     0.006999
      dyz     :     0.005132
      dx2y2   :     0.009558
      dxy     :     0.011059

 12 C s       :     2.025978  s :     2.025978
      pz      :     1.195477  p :     3.419288
      px      :     1.446944
      py      :     0.776867
      dz2     :     0.005493  d :     0.038804
      dxz     :     0.005616
      dyz     :     0.005653
      dx2y2   :     0.011903
      dxy     :     0.010138

 13 C s       :     3.417066  s :     3.417066
      pz      :     1.080006  p :     3.210229
      px      :     1.211216
      py      :     0.919007
      dz2     :     0.003640  d :     0.036163
      dxz     :     0.007247
      dyz     :     0.005151
      dx2y2   :     0.008533
      dxy     :     0.011593

 14 C s       :     3.131959  s :     3.131959
      pz      :     0.964362  p :     2.808233
      px      :     0.757299
      py      :     1.086572
      dz2     :     0.003311  d :     0.036182
      dxz     :     0.007575
      dyz     :     0.005246
      dx2y2   :     0.009329
      dxy     :     0.010721

 15 C s       :     2.649564  s :     2.649564
      pz      :     0.784459  p :     3.312577
      px      :     1.658987
      py      :     0.869130
      dz2     :     0.007420  d :     0.087723
      dxz     :     0.007442
      dyz     :     0.016996
      dx2y2   :     0.026551
      dxy     :     0.029315

 16 O s       :     3.940630  s :     3.940630
      pz      :     1.463459  p :     4.525854
      px      :     1.741231
      py      :     1.321163
      dz2     :     0.003228  d :     0.024949
      dxz     :     0.000832
      dyz     :     0.008015
      dx2y2   :     0.007327
      dxy     :     0.005548

 17 C s       :     2.674255  s :     2.674255
      pz      :     1.126977  p :     2.539127
      px      :     0.318878
      py      :     1.093272
      dz2     :     0.003882  d :     0.035522
      dxz     :     0.004844
      dyz     :     0.005122
      dx2y2   :     0.010729
      dxy     :     0.010945

 18 C s       :     3.874464  s :     3.874464
      pz      :     1.062513  p :     3.538658
      px      :     1.347895
      py      :     1.128249
      dz2     :     0.005317  d :     0.038618
      dxz     :     0.003690
      dyz     :     0.007308
      dx2y2   :     0.013122
      dxy     :     0.009181

 19 C s       :     2.815458  s :     2.815458
      pz      :     1.178398  p :     3.314824
      px      :     1.134684
      py      :     1.001742
      dz2     :     0.003097  d :     0.033877
      dxz     :     0.005460
      dyz     :     0.004424
      dx2y2   :     0.011843
      dxy     :     0.009053

 20 C s       :     3.424600  s :     3.424600
      pz      :     0.817335  p :     2.309796
      px      :     0.743094
      py      :     0.749367
      dz2     :     0.006960  d :     0.061331
      dxz     :     0.011869
      dyz     :     0.010648
      dx2y2   :     0.014517
      dxy     :     0.017336

 21 C s       :     2.117438  s :     2.117438
      pz      :     1.100293  p :     3.467141
      px      :     1.086648
      py      :     1.280200
      dz2     :     0.003954  d :     0.031341
      dxz     :     0.003238
      dyz     :     0.004714
      dx2y2   :     0.010036
      dxy     :     0.009400

 22 C s       :     3.395049  s :     3.395049
      pz      :     0.794505  p :     2.695827
      px      :     0.906696
      py      :     0.994626
      dz2     :     0.008132  d :     0.075867
      dxz     :     0.009847
      dyz     :     0.015327
      dx2y2   :     0.021322
      dxy     :     0.021239

 23 O s       :     3.986321  s :     3.986321
      pz      :     1.731934  p :     4.669228
      px      :     1.606893
      py      :     1.330401
      dz2     :     0.004486  d :     0.028617
      dxz     :     0.003269
      dyz     :     0.003875
      dx2y2   :     0.006197
      dxy     :     0.010789

 24 N s       :     3.228357  s :     3.228357
      pz      :     1.602588  p :     3.791378
      px      :     1.072824
      py      :     1.115965
      dz2     :     0.003845  d :     0.037713
      dxz     :     0.005821
      dyz     :     0.005134
      dx2y2   :     0.011538
      dxy     :     0.011375

 25 C s       :     3.433041  s :     3.433041
      pz      :     0.924529  p :     2.851404
      px      :     1.099236
      py      :     0.827640
      dz2     :     0.011839  d :     0.054855
      dxz     :     0.009795
      dyz     :     0.012642
      dx2y2   :     0.009709
      dxy     :     0.010871

 26 C s       :     3.466810  s :     3.466810
      pz      :     0.887695  p :     3.091111
      px      :     1.106658
      py      :     1.096758
      dz2     :     0.007940  d :     0.033340
      dxz     :     0.008426
      dyz     :     0.004062
      dx2y2   :     0.006808
      dxy     :     0.006105

 27 C s       :     3.421361  s :     3.421361
      pz      :     0.966321  p :     2.832602
      px      :     0.768752
      py      :     1.097528
      dz2     :     0.009398  d :     0.054751
      dxz     :     0.014447
      dyz     :     0.008964
      dx2y2   :     0.014913
      dxy     :     0.007029

 28 C s       :     3.479420  s :     3.479420
      pz      :     0.935260  p :     3.088951
      px      :     1.052156
      py      :     1.101534
      dz2     :     0.007493  d :     0.033323
      dxz     :     0.004985
      dyz     :     0.008078
      dx2y2   :     0.010211
      dxy     :     0.002557

 29 H s       :     0.800466  s :     0.800466

 30 H s       :     0.803824  s :     0.803824

 31 H s       :     0.802238  s :     0.802238

 32 H s       :     0.808523  s :     0.808523

 33 H s       :     0.810858  s :     0.810858

 34 H s       :     0.809340  s :     0.809340

 35 H s       :     0.805072  s :     0.805072

 36 H s       :     0.800164  s :     0.800164

 37 H s       :     0.807717  s :     0.807717

 38 H s       :     0.778186  s :     0.778186

 39 H s       :     0.797264  s :     0.797264

 40 H s       :     0.771244  s :     0.771244

 41 H s       :     0.802855  s :     0.802855

 42 H s       :     0.782077  s :     0.782077

 43 H s       :     0.792423  s :     0.792423

 44 H s       :     0.796817  s :     0.796817

 45 H s       :     0.790987  s :     0.790987

 46 H s       :     0.799524  s :     0.799524

 47 H s       :     0.834780  s :     0.834780

 48 H s       :     0.820534  s :     0.820534

 49 H s       :     0.437738  s :     0.437738

 50 H s       :     0.800326  s :     0.800326

 51 H s       :     0.795207  s :     0.795207

 52 H s       :     0.792028  s :     0.792028

 53 H s       :     0.778822  s :     0.778822

 54 H s       :     0.795290  s :     0.795290

 55 H s       :     0.796783  s :     0.796783

 56 H s       :     0.794020  s :     0.794020

 57 H s       :     0.794788  s :     0.794788

 58 H s       :     0.794295  s :     0.794295

 59 H s       :     0.773415  s :     0.773415



                     *******************************
                     * LOEWDIN POPULATION ANALYSIS *
                     *******************************

----------------------
LOEWDIN ATOMIC CHARGES
----------------------
   0 C :   -0.517714
   1 C :   -0.397755
   2 C :   -0.395711
   3 C :   -0.387184
   4 C :   -0.367082
   5 C :   -0.143340
   6 O :   -0.362319
   7 C :    0.198396
   8 O :   -0.336845
   9 C :   -0.081130
  10 C :   -0.136339
  11 C :   -0.141569
  12 C :   -0.082259
  13 C :   -0.178232
  14 C :   -0.146108
  15 C :    0.142791
  16 O :   -0.392503
  17 C :   -0.159703
  18 C :   -0.138214
  19 C :   -0.247545
  20 C :    0.007734
  21 C :   -0.242268
  22 C :    0.120434
  23 O :   -0.440859
  24 N :   -0.343770
  25 C :   -0.268116
  26 C :   -0.492793
  27 C :   -0.267170
  28 C :   -0.491392
  29 H :    0.186648
  30 H :    0.182914
  31 H :    0.185902
  32 H :    0.190460
  33 H :    0.189504
  34 H :    0.195557
  35 H :    0.197341
  36 H :    0.200081
  37 H :    0.196328
  38 H :    0.213995
  39 H :    0.205162
  40 H :    0.230093
  41 H :    0.209654
  42 H :    0.240682
  43 H :    0.235294
  44 H :    0.231479
  45 H :    0.237119
  46 H :    0.232579
  47 H :    0.220688
  48 H :    0.238176
  49 H :    0.438267
  50 H :    0.212597
  51 H :    0.210155
  52 H :    0.197284
  53 H :    0.203527
  54 H :    0.189977
  55 H :    0.209521
  56 H :    0.215080
  57 H :    0.195962
  58 H :    0.190690
  59 H :    0.205849

-------------------------------
LOEWDIN REDUCED ORBITAL CHARGES
-------------------------------
  0 C s       :     3.019178  s :     3.019178
      pz      :     1.128404  p :     3.431136
      px      :     1.158483
      py      :     1.144249
      dz2     :     0.019480  d :     0.067400
      dxz     :     0.004955
      dyz     :     0.016424
      dx2y2   :     0.012507
      dxy     :     0.014034

  1 C s       :     2.969302  s :     2.969302
      pz      :     1.116600  p :     3.343600
      px      :     1.099596
      py      :     1.127404
      dz2     :     0.020220  d :     0.084852
      dxz     :     0.010306
      dyz     :     0.018838
      dx2y2   :     0.013928
      dxy     :     0.021561

  2 C s       :     2.966716  s :     2.966716
      pz      :     1.111796  p :     3.344445
      px      :     1.107584
      py      :     1.125065
      dz2     :     0.019866  d :     0.084549
      dxz     :     0.010560
      dyz     :     0.018952
      dx2y2   :     0.013619
      dxy     :     0.021553

  3 C s       :     2.961235  s :     2.961235
[...]
  0-1A  ->  4-1A    4.370807   35252.9   283.7   0.609515534   5.69200   1.93050  -1.28836  -0.55254
  0-1A  ->  5-1A    4.529435   36532.4   273.7   0.035873093   0.32327  -0.39041   0.41333   0.00346
  0-1A  ->  6-1A    4.581207   36949.9   270.6   0.005826815   0.05192  -0.03663   0.06908  -0.21401
  0-1A  ->  7-1A    4.646235   37474.4   266.8   0.002775346   0.02438  -0.06983  -0.13562  -0.03337
  0-1A  ->  8-1A    4.655571   37549.7   266.3   0.014399838   0.12625   0.24395   0.24025  -0.09495
  0-1A  ->  9-1A    4.765913   38439.7   260.1   0.015649304   0.13403  -0.26570  -0.22662   0.10989
  0-1A  -> 10-1A    4.919981   39682.3   252.0   0.168998761   1.40205   1.08200   0.47840   0.04962
  0-1A  -> 11-1A    5.066812   40866.6   244.7   0.155450911   1.25228  -1.11031  -0.13606   0.03125
  0-1A  -> 12-1A    5.123315   41322.3   242.0   0.007332934   0.05842  -0.01004  -0.21905  -0.10167
  0-1A  -> 13-1A    5.183710   41809.4   239.2   0.012312131   0.09695   0.21113  -0.22462  -0.04377
  0-1A  -> 14-1A    5.209085   42014.1   238.0   0.005938899   0.04654  -0.16233  -0.10946  -0.09057
  0-1A  -> 15-1A    5.315568   42872.9   233.2   0.000612845   0.00471   0.02809   0.06230  -0.00591
  0-1A  -> 16-1A    5.388695   43462.8   230.1   0.001472474   0.01115   0.00854  -0.10410   0.01559
  0-1A  -> 17-1A    5.402219   43571.8   229.5   0.001374649   0.01039  -0.04854   0.08103   0.03827
  0-1A  -> 18-1A    5.485986   44247.5   226.0   0.012152884   0.09042   0.13659  -0.22191  -0.15005
  0-1A  -> 19-1A    5.562971   44868.4   222.9   0.014398643   0.10565  -0.09882   0.28109   0.12988
  0-1A  -> 20-1A    5.635750   45455.4   220.0   0.002895901   0.02097  -0.07351  -0.01954   0.12324
  0-1A  -> 21-1A    5.690990   45900.9   217.9   0.067828685   0.48648   0.68410   0.12735  -0.04764
  0-1A  -> 22-1A    5.731132   46224.7   216.3   0.042606362   0.30344  -0.39916  -0.34304   0.16260

----------------------------------------------------------------------------------------------------
                     ABSORPTION SPECTRUM VIA TRANSITION VELOCITY DIPOLE MOMENTS    
----------------------------------------------------------------------------------------------------
     Transition      Energy     Energy  Wavelength fosc(P2)      P2        PX        PY        PZ   
                      (eV)      (cm-1)    (nm)                 (au**2)    (au)      (au)      (au)  
----------------------------------------------------------------------------------------------------
  0-1A  ->  1-1A    3.423726   27614.2   362.1   0.089006892   0.01680   0.12899   0.01141  -0.00555
  0-1A  ->  2-1A    3.706727   29896.8   334.5   0.002991435   0.00061   0.01239  -0.01939  -0.00905
  0-1A  ->  3-1A    3.889415   31370.3   318.8   0.009581683   0.00205   0.04230  -0.01141  -0.01160
  0-1A  ->  4-1A    4.370807   35252.9   283.7   0.205639178   0.04955  -0.21816   0.03450   0.02762
  0-1A  ->  5-1A    4.529435   36532.4   273.7   0.009465882   0.00236   0.04574   0.00014  -0.01647
  0-1A  ->  6-1A    4.581207   36949.9   270.6   0.003702662   0.00094  -0.01668   0.02438  -0.00789
  0-1A  ->  7-1A    4.646235   37474.4   266.8   0.000997728   0.00026   0.00107  -0.01215  -0.01033
  0-1A  ->  8-1A    4.655571   37549.7   266.3   0.002712647   0.00070  -0.00857   0.02232  -0.01116
  0-1A  ->  9-1A    4.765913   38439.7   260.1   0.009981195   0.00262   0.03621   0.03499  -0.00931
  0-1A  -> 10-1A    4.919981   39682.3   252.0   0.053076480   0.01439  -0.11787   0.00914   0.02043
  0-1A  -> 11-1A    5.066812   40866.6   244.7   0.034687474   0.00969   0.08887  -0.02231  -0.03596
  0-1A  -> 12-1A    5.123315   41322.3   242.0   0.020802843   0.00588   0.06755   0.03247   0.01606
  0-1A  -> 13-1A    5.183710   41809.4   239.2   0.003038387   0.00087  -0.02749   0.01059   0.00049
  0-1A  -> 14-1A    5.209085   42014.1   238.0   0.001195965   0.00034   0.00598  -0.01366   0.01101
  0-1A  -> 15-1A    5.315568   42872.9   233.2   0.001288853   0.00038  -0.01271   0.01174   0.00886
  0-1A  -> 16-1A    5.388695   43462.8   230.1   0.000630505   0.00019   0.00105   0.01181  -0.00683
  0-1A  -> 17-1A    5.402219   43571.8   229.5   0.000745076   0.00022   0.00757  -0.01219  -0.00400
  0-1A  -> 18-1A    5.485986   44247.5   226.0   0.008184538   0.00248  -0.03797   0.02551   0.01955
  0-1A  -> 19-1A    5.562971   44868.4   222.9   0.001809143   0.00055   0.02144   0.00691   0.00687
  0-1A  -> 20-1A    5.635750   45455.4   220.0   0.001546996   0.00048   0.01433   0.01210  -0.01136
  0-1A  -> 21-1A    5.690990   45900.9   217.9   0.068792381   0.02158  -0.14287  -0.02771  -0.02002
  0-1A  -> 22-1A    5.731132   46224.7   216.3   0.022854985   0.00722   0.08194  -0.01724   0.01448

------------------------------------------------------------------------------------------
                     CD SPECTRUM VIA TRANSITION ELECTRIC DIPOLE MOMENTS    
------------------------------------------------------------------------------------------
     Transition      Energy     Energy  Wavelength    R        MX        MY        MZ   
                      (eV)      (cm-1)    (nm)   (1e40*cgs)   (au)      (au)      (au)  
------------------------------------------------------------------------------------------
  0-1A  ->  1-1A    3.423726   27614.2   362.1    4.42223   0.03456  -0.06350   0.26938
  0-1A  ->  2-1A    3.706727   29896.8   334.5   -0.20257   0.00464   0.00746  -0.09019
  0-1A  ->  3-1A    3.889415   31370.3   318.8    0.61004  -0.05293  -0.26422   0.08229
  0-1A  ->  4-1A    4.370807   35252.9   283.7   15.50282  -0.09716   0.05499  -0.40817
  0-1A  ->  5-1A    4.529435   36532.4   273.7   19.07121   0.03478  -0.06800   0.35605
  0-1A  ->  6-1A    4.581207   36949.9   270.6  -31.56180   0.05274   0.11580  -0.28446
  0-1A  ->  7-1A    4.646235   37474.4   266.8    2.35004  -0.14434   0.14799  -0.15003
  0-1A  ->  8-1A    4.655571   37549.7   266.3    2.40396  -0.03706   0.01949   0.00778
  0-1A  ->  9-1A    4.765913   38439.7   260.1    8.99030  -0.02762   0.00213  -0.23591
  0-1A  -> 10-1A    4.919981   39682.3   252.0  -15.30428  -0.06426   0.26767  -0.52534
  0-1A  -> 11-1A    5.066812   40866.6   244.7    5.36736   0.04811  -0.19057   0.51537
  0-1A  -> 12-1A    5.123315   41322.3   242.0   17.01106   0.11602   0.09755   0.13327
  0-1A  -> 13-1A    5.183710   41809.4   239.2    1.89795  -0.01318   0.01290  -0.03779
  0-1A  -> 14-1A    5.209085   42014.1   238.0    7.01588   0.03308  -0.03107   0.14256
  0-1A  -> 15-1A    5.315568   42872.9   233.2   -0.72572   0.08937  -0.02541  -0.10350
  0-1A  -> 16-1A    5.388695   43462.8   230.1   -0.74425   0.03435  -0.02360  -0.07511
  0-1A  -> 17-1A    5.402219   43571.8   229.5   -6.87597  -0.08050   0.06981   0.13119
  0-1A  -> 18-1A    5.485986   44247.5   226.0   15.22595  -0.09488   0.13140  -0.06547
  0-1A  -> 19-1A    5.562971   44868.4   222.9   -9.48705  -0.04325   0.05971  -0.00720
  0-1A  -> 20-1A    5.635750   45455.4   220.0    8.08293  -0.01194  -0.01871  -0.14921
  0-1A  -> 21-1A    5.690990   45900.9   217.9   -3.58064  -0.04803   0.24120  -0.20442
  0-1A  -> 22-1A    5.731132   46224.7   216.3  -55.54628   0.01236  -0.18451   0.36568

------------------------------------------------------------------------------------------
                     CD SPECTRUM VIA TRANSITION VELOCITY DIPOLE MOMENTS    
------------------------------------------------------------------------------------------
     Transition      Energy     Energy  Wavelength    R        MX        MY        MZ   
                      (eV)      (cm-1)    (nm)   (1e40*cgs)   (au)      (au)      (au)  
------------------------------------------------------------------------------------------
  0-1A  ->  1-1A    3.423726   27614.2   362.1    8.38840   0.03456  -0.06350   0.26938
  0-1A  ->  2-1A    3.706727   29896.8   334.5    2.52120   0.00464   0.00746  -0.09019
  0-1A  ->  3-1A    3.889415   31370.3   318.8   -0.59378  -0.05293  -0.26422   0.08229
  0-1A  ->  4-1A    4.370807   35252.9   283.7   34.68656  -0.09716   0.05499  -0.40817
  0-1A  ->  5-1A    4.529435   36532.4   273.7  -12.12626   0.03478  -0.06800   0.35605
  0-1A  ->  6-1A    4.581207   36949.9   270.6   11.72657   0.05274   0.11580  -0.28446
  0-1A  ->  7-1A    4.646235   37474.4   266.8   -1.10936  -0.14434   0.14799  -0.15003
  0-1A  ->  8-1A    4.655571   37549.7   266.3    1.83480  -0.03706   0.01949   0.00778
  0-1A  ->  9-1A    4.765913   38439.7   260.1    3.41783  -0.02762   0.00213  -0.23591
  0-1A  -> 10-1A    4.919981   39682.3   252.0   -1.86206  -0.06426   0.26767  -0.52534
  0-1A  -> 11-1A    5.066812   40866.6   244.7  -25.33128   0.04811  -0.19057   0.51537
  0-1A  -> 12-1A    5.123315   41322.3   242.0   32.91555   0.11602   0.09755   0.13327
  0-1A  -> 13-1A    5.183710   41809.4   239.2    1.18876  -0.01318   0.01290  -0.03779
  0-1A  -> 14-1A    5.209085   42014.1   238.0    5.39650   0.03308  -0.03107   0.14256
  0-1A  -> 15-1A    5.315568   42872.9   233.2   -5.67296   0.08937  -0.02541  -0.10350
  0-1A  -> 16-1A    5.388695   43462.8   230.1    0.64369   0.03435  -0.02360  -0.07511
  0-1A  -> 17-1A    5.402219   43571.8   229.5   -4.71465  -0.08050   0.06981   0.13119
  0-1A  -> 18-1A    5.485986   44247.5   226.0   13.27315  -0.09488   0.13140  -0.06547
  0-1A  -> 19-1A    5.562971   44868.4   222.9   -1.30098  -0.04325   0.05971  -0.00720
  0-1A  -> 20-1A    5.635750   45455.4   220.0    2.95185  -0.01194  -0.01871  -0.14921
  0-1A  -> 21-1A    5.690990   45900.9   217.9    9.62811  -0.04803   0.24120  -0.20442
  0-1A  -> 22-1A    5.731132   46224.7   216.3   21.24072   0.01236  -0.18451   0.36568

Total run time:      924.724 sec

           *** ORCA-CIS/TD-DFT FINISHED WITHOUT ERROR ***
-----------------------
CIS/TD-DFT TOTAL ENERGY
-----------------------

    E(SCF)  =  -1288.150858529 Eh
    DE(CIS) =      0.125819624 Eh (Root  1)
    ----------------------------- ---------
    E(tot)  =  -1288.025038906 Eh


Maximum memory used throughout the entire CIS-calculation: 1407.7 MB
=> NOW LEAVING ORCA_CIS

-------------------------   --------------------
FINAL SINGLE POINT ENERGY     -1288.025038905811
-------------------------   --------------------



           ************************************************************
           *        Program running with 4 parallel MPI-processes     *
           *              working on a common directory               *
           ************************************************************

------------------------------------------------------------------------------
                              ORCA PROPERTY CALCULATIONS
------------------------------------------------------------------------------

GBWName                                 ... td.gbw
Number of atoms                         ...     60
Number of basis functions               ...    584
Max core memory                         ...   2500 MB

Electric properties:
Dipole moment                           ... YES
Quadrupole moment                       ...  NO
Static polarizability (Dipole/Dipole)   ...  NO
Static polarizability (Dipole/Quad.)    ...  NO
Static polarizability (Quad./Quad.)     ...  NO
Static polarizability (Velocity)        ...  NO
Static hyperpolarizability              ...  NO

Atomic electric properties:
Dipole moment                           ...  NO
Quadrupole moment                       ...  NO
Static polarizability                   ...  NO

Choice of electric origin               ... Center of mass
Position of electric origin             ...    -0.731883    -1.385809    -0.422874

General magnetic properties:
Magnetizability                         ...  NO

EPR properties:
g-Tensor (aka g-matrix)                 ...  NO
Zero-Field splitting spin-orbit         ...  NO
Zero-field splitting spin-spin          ...  NO
Hyperfine couplings                     ...  NO (   0 nuclei)
Quadrupole couplings                    ...  NO (   0 nuclei)
Contact density                         ...  NO (   0 nuclei)

NMR properties:
Chemical shifts                         ...  NO (   0 nuclei)
Spin-rotation constants                 ...  NO (   0 nuclei)
Spin-spin couplings                     ...  NO (   0 nuclei,    0 pairs)

Choice of magnetic origin               ... GIAO
Position of magnetic origin             ...     0.000000     0.000000     0.000000

Properties with geometric perturbations:
SCF Hessian                             ...  NO
IR spectrum                             ...  NO
VCD spectrum                            ...  NO
X-ray spectroscopy properties:
SCF XES/XAS/RIXS spectra                ...  NO

SCF SOC stabilization energy            ...  NO
Diagonal Born-Oppenheimer correction    ...  NO

-------------
DIPOLE MOMENT
-------------

Method             : SCF
Type of density    : Electron Density
Multiplicity       :   1
Irrep              :   0
Energy             : -1288.1508585293231590 Eh
Basis              : AO
                                X                 Y                 Z
Electronic contribution:    -23.929783029     -35.727747806     -12.307336129
Nuclear contribution   :     23.273631344      38.657545717      12.818519646
                        -----------------------------------------
Total Dipole Moment    :     -0.656151685       2.929797912       0.511183517
                        -----------------------------------------
Magnitude (a.u.)       :      3.045580310
Magnitude (Debye)      :      7.741249941



--------------------
Rotational spectrum 
--------------------
 
Rotational constants in cm-1:             0.008476             0.001481             0.001298 
Rotational constants in MHz :           254.100901            44.386530            38.925661 

Dipole components along the rotational axes: 
x,y,z [a.u.] :    -0.545237     2.933123    -0.612426 
x,y,z [Debye]:    -1.385883     7.455406    -1.556662 

 

Dipole moment calculation done in   0.1 sec 

Maximum memory used throughout the entire PROP-calculation: 44.0 MB

--------------------------------
SUGGESTED CITATIONS FOR THIS RUN
--------------------------------

Below you find a list of papers that are relevant to this ORCA run
We neither can nor want to force you to cite these papers, but we appreciate if you do
You receive ORCA, which is the product of decades of hard work by many enthusiastic individuals, for free
The only thing we kindly ask in return is that you cite our papers,
We deeply appreciate it, if you show your appreciation for ORCA by not just citing the generic ORCA reference.

Please note that relegating all ORCA citations to the supporting information does *not* help us.
SI sections are not indexed - citations you put there will not count into any citation statistics
But we need these citations in order to attract the funding resources that allow us to do what we are doing

Therefore, if you are a happy ORCA user, please consider citing a few of the papers listed below in the main body of your paper

In addition to the list printed below, the program has created the file td.bibtex that contains the list in bibtex format
You can import this file easily into all common literature databanks and citation aid programs

It goes without saying that in many instances, there are alternative algorithms to achieve similar
results as the ones you have gotten from ORCA. It is, of course, also the case that in some instances
ORCA just re-implements algorithms worked out by others. We are fully aware of that and we are also
fully appreciative of our colleagues work. Hence this citation list should not be read as indicating
that the listed papers, which are focused on our own work, are the only ones worth citing. It simply
meant to make it easier for users to cite ORCA specific papers. It is not a substitute for doing your
own literature research and citing the relevant literature in a scientifically appropriate manner.

List of essential papers. We consider these as the minimum necessary citations

  1. Neese, F.
     Software update: the ORCA program system, version 6.0
     WIRES Comput. Molec. Sci. 2025 15(1), e70019
     doi.org/10.1002/wcms.70019

List of papers to cite with high priority. The work reported in these papers was absolutely
necessary for this run to complete.
Our perspective: the developers of density functionals and basis sets usually get cited in chemistry papers
Good! But without the algorithms to do something with them, the functionals or basis sets would not do anything.
Hence, in our opinion, the algorithm design and method developments papers are equally worthy of getting cited

  1. Neese, F.; Olbrich, G.
     Efficient use of the resolution of the identity approximation in time-dependent density functional calculations with hybrid density functionals
     Chem. Phys. Lett. 2002 362 , 170-178
     doi.org/10.1016/s0009-2614(02)01053-9
  2. Neese, F.
     An improvement of the resolution of the identity approximation for the formation of the Coulomb matrix
     J. Comp. Chem. 2003 24(14), 1740-1747
     doi.org/10.1002/jcc.10318
  3. Neese, F.; Wennmohs, F.; Hansen, A.; Becker, U.
     Efficient, approximate and parallel Hartree-Fock and hybrid DFT calculations. A 'chain-of-spheres' algorithm for the Hartree-Fock exchange
     Chem. Phys. 2009 356(1-3), 98-109
     doi.org/10.1016/j.chemphys.2008.10.036
  4. Helmich-Paris, B.; de Souza, B.; Neese, F.; Izsák, R.
     An improved chain of spheres for exchange algorithm
     J. Chem. Phys. 2021 155(10), 104109
     doi.org/10.1063/5.0058766
  5. Neese, F.
     The SHARK Integral Generation and Digestion System
     J. Comp. Chem. 2022 44(3), 381
     doi.org/10.1002/jcc.26942

List of suggested additional citations. These are papers that are important in the 'surrounding' of 
of this run, or papers that preceded the highly important papers. If you like your results we are grateful for a citation.

  1. Izsak, R.; Neese, F.
     An overlap fitted chain of spheres exchange method
     J. Chem. Phys. 2011 135 , 144105
     doi.org/10.1063/1.3646921
  2. Izsak, R.; Hansen, A.; Neese, F.
     The resolution of identity and chain of spheres approximations for the LPNO-CCSD singles Fock term
     Molec. Phys. 2012 110 , 2413-2417
     doi.org/10.1080/00268976.2012.687466
  3. Neese, F.
     The ORCA program system
     WIRES Comput. Molec. Sci. 2012 2(1), 73-78
     doi.org/10.1002/wcms.81
  4. Izsak, R.; Neese, F.; Klopper, W.
     Robust fitting techniques in the chain of spheres approximation to the Fock exchange: The role of the complementary space
     J. Chem. Phys. 2013 139 , 
     doi.org/10.1063/1.4819264
  5. Neese, F.
     Software update: the ORCA program system, version 4.0
     WIRES Comput. Molec. Sci. 2018 8(1), 1-6
     doi.org/10.1002/wcms.1327
  6. Neese, F.; Wennmohs, F.; Becker, U.; Riplinger, C.
     The ORCA quantum chemistry program package
     J. Chem. Phys. 2020 152(22), 224108
     doi.org/10.1063/5.0004608
  7. Neese, F.
     Software update: The ORCA program system—Version 5.0
     WIRES Comput. Molec. Sci. 2022 12(1), e1606
     doi.org/10.1002/wcms.1606

List of optional additional citations

  1. Neese, F.
     Approximate second-order SCF convergence for spin unrestricted wavefunctions
     Chem. Phys. Lett. 2000 325(1-3), 93-98
     doi.org/10.1016/s0009-2614(00)00662-x

Timings for individual modules:

Sum of individual times          ...     1826.992 sec (=  30.450 min)
Startup calculation              ...       16.341 sec (=   0.272 min)   0.9 %
SCF iterations                   ...      883.338 sec (=  14.722 min)  48.3 %
Property integrals               ...        1.270 sec (=   0.021 min)   0.1 %
Property calculations            ...        0.670 sec (=   0.011 min)   0.0 %
CIS module                       ...      925.373 sec (=  15.423 min)  50.7 %
                             ****ORCA TERMINATED NORMALLY****
TOTAL RUN TIME: 0 days 0 hours 30 minutes 28 seconds 357 msec
