
                                 *****************
                                 * O   R   C   A *
                                 *****************

                                            #,                                       
                                            ###                                      
                                            ####                                     
                                            #####                                    
                                            ######                                   
                                           ########,                                 
                                     ,,################,,,,,                         
                               ,,#################################,,                 
                          ,,##########################################,,             
                       ,#########################################, ''#####,          
                    ,#############################################,,   '####,        
                  ,##################################################,,,,####,       
                ,###########''''           ''''###############################       
              ,#####''   ,,,,##########,,,,          '''####'''          '####       
            ,##' ,,,,###########################,,,                        '##       
           ' ,,###''''                  '''############,,,                           
         ,,##''                                '''############,,,,        ,,,,,,###''
      ,#''                                            '''#######################'''  
     '                                                          ''''####''''         
             ,#######,   #######,   ,#######,      ##                                
            ,#'     '#,  ##    ##  ,#'     '#,    #''#        ,####,    ,#,          
            ##       ##  ##   ,#'  ##            #'  '#       #'       ,# #          
            ##       ##  #######   ##           ,######,      #####,      #          
            '#,     ,#'  ##    ##  '#,     ,#' ,#      #,     #,   #      #          
             '#######'   ##     ##  '#######'  #'      '#     '####' #    #          



                #########################################################
                #                        -***-                          #
                #          Department of theory and spectroscopy        #
                #                                                       #
                #                      Frank Neese                      #
                #                                                       #
                #     Directorship, Architecture, Infrastructure        #
                #                    SHARK, DRIVERS                     #
                #        Core code/Algorithms in most modules           #
                #                                                       #
                #        Max Planck Institute fuer Kohlenforschung      #
                #                Kaiser Wilhelm Platz 1                 #
                #                 D-45470 Muelheim/Ruhr                 #
                #                      Germany                          #
                #                                                       #
                #                  All rights reserved                  #
                #                        -***-                          #
                #########################################################


                         Program Version 6.1.1  -  RELEASE   -


 With contributions from (in alphabetic order):
[Max-Planck-Institut fuer Kohlenforschung]                               
  Daniel Aravena         : Magnetic Suceptibility                        
  Michael Atanasov       : Ab Initio Ligand Field Theory (pilot matlab implementation)
  Alexander A. Auer      : GIAO ZORA, VPT2 properties, NMR spectrum      
  Ute Becker             : All parallelization in ORCA, NUMFREQ, NUMCALC 
  Giovanni Bistoni       : ED, misc. LED, open-shell LED, HFLD           
  Dmytro Bykov           : pre 5.0 version of the SCF Hessian            
  Marcos Casanova-Páez   : Triplet and SCS-CIS(D). UHF-(DLPNO)-IP/EA/STEOM-CCSD. UHF-CVS-IP/STEOM-CCSD   
  Vijay G. Chilkuri      : MRCI spin determinant printing, contributions to CSF-ICE 
  Pauline Colinet        : FMM embedding                                 
  Dipayan Datta          : RHF DLPNO-CCSD density                        
  Achintya Kumar Dutta   : EOM-CC, STEOM-CC                              
  Nicolas Foglia         : Exact transition moments, OPA infrastructure, MCD improvements    
  Dmitry Ganyushin       : Spin-Orbit,Spin-Spin,Magnetic field MRCI      
  Miquel Garcia-Rates    : C-PCM and meta-GGA Hessian, CCSD/C-PCM, Gaussian charge scheme 
  Tiago L. C. Gouveia    : GS-ROHF, GS-ROCIS                             
  Yang Guo               : DLPNO-NEVPT2, F12-NEVPT2, CIM, IAO-localization        
  Andreas Hansen         : Spin unrestricted coupled pair/coupled cluster methods 
  Ingolf Harden          : AUTO-CI MPn and infrastructure                
  Benjamin Helmich-Paris : MC-RPA, TRAH-(SCF,CASSCF), AVAS, COSX integrals, SCF dyn. polar., MC-PDFT, srDFT 
  Lee Huntington         : MR-EOM, pCC                                   
  Robert Izsak           : Overlap fitted RIJCOSX, COSX-SCS-MP3, EOM     
  Riya Kayal             : Wick's Theorem for AUTO-CI, AUTO-CI UHF-CCSDT 
  Emily Kempfer          : AUTO-CI RHF CISDT and CCSDT, approximate NEVPT4
  Christian Kollmar      : KDIIS, OOCD, Brueckner-CCSD(T), CCSD density, CASPT2, CASPT2-K, improved NEVPT2 
  Axel Koslowski         : Symmetry handling                             
  Simone Kossmann        : meta-GGA functionals, TD-DFT gradient, OOMP2, (MP2 Hessian; deprecated post 5.0) 
  Lucas Lang             : DCDCAS, Hyperfine gauge corrections, ICE-SOC+SSC
  Marvin Lechner         : AUTO-CI (C++ implementation), FIC-MRCC        
  Spencer Leger          : CASSCF response                               
  Dagmar Lenk            : GEPOL surface, SMD, ORCA-2-JSON               
  Dimitrios Liakos       : Extrapolation schemes; Compound Job, Property file
  Dimitrios Manganas     : Further ROCIS development; embedding schemes. LFT, Crystal Embedding 
  Dimitrios Pantazis     : SARC Basis sets                               
  Anastasios Papadopoulos: AUTO-CI, single reference methods and gradients 
  Taras Petrenko         : pre 6.0 DFT Hessian and TD-DFT gradient,  ECA, NRVS 
  Petra Pikulova         : Analytic Raman intensities                    
  Peter Pinski           : DLPNO-MP2, DLPNO-MP2 Gradient                 
  Shashank Vittal Rao    : ES-AILFT, MagRelax                            
  Christoph Reimann      : Effective Core Potentials                     
  Marius Retegan         : Local ZFS, SOC                                
  Christoph Riplinger    : Optimizer, TS searches, QM/MM, DLPNO-CCSD(T), (RO)-DLPNO pert. Triples 
  Michael Roemelt        : Original ROCIS implementation, recursive CI coupling coefficients
  Masaaki Saitow         : Open-shell DLPNO-CCSD energy and density      
  Barbara Sandhoefer     : DKH picture change effects                    
  Yorick L. A. Schmerwitz: GMF and freeze-and-release deltaSCF, NEB S-IDPP initial path                    
  Kantharuban Sivalingam : CASSCF convergence/infrastructure, NEVPT2, NEVPT3, NEVPT4(SD), FIC-MRCI and CEPA variants
  Bernardo de Souza      : ESD, SOC TD-DFT                               
  Georgi L. Stoychev     : AutoAux, RI-MP2 NMR, DLPNO-MP2 response, X2C  
  Van Anh Tran           : RI-MP2 g-tensors                              
  Willem Van den Heuvel  : Paramagnetic NMR                              
  Zikuan Wang            : NOTCH, Electric field optimization            
  Frank Wennmohs         : Technical directorship and infrastructure     
  Hang Xu                : AUTO-CI-Response properties                   
                                                                         
[FACCTs GmbH]                                                            
  Markus Bursch, Nicolas Foglia, Miquel Garcia-Rates, Ingolf Harden, Hagen Neugebauer, Anastasios Papadopoulos, 
  Christoph Riplinger, Bernardo de Souza, Georgi L. Stoychev                                                    
                                                                 
  APM, various basis sets, CI-OPT, improved COSX, DLPNO-Multilevel,           
  DOCKER, DRACO, updates on ESD, Fragmentator, GOAT, IRC, LR-CPCM, L-BFGS, MBIS, meta-GGA TD-DFT gradient, ML-optimized integration grids, 
  MM, NACMEs, nearIR, NEB, NEB-TS, NL-DFT gradient (VV10), 2- and 3-layer-ONIOM, interface openCOSMO-RS, QMMM,   
  Crystal-QMMM, RESP, rigid body optimization, SF, symmetry and pop. for TD-DFT, various functionals, SOLVATOR                                   
                                                                         
[Other institutions]                                                     
  V. Asgeirsson          : NEB                                           
  Christoph Bannwarth    : sTDA-DFT, sTD-DFT, PBEh-3c, B97-3c, D3        
  Giovanni Bistoni       : ETS/NOCV, ADLD/ADEX, COVALED                  
  Martin Brehm           : Molecular dynamics                            
  Ronald Cardenas        : ETS/NOCV                                      
  Martina Colucci        : COVALED                                       
  Sebastian Ehlert       : rSCAN, r2SCAN, r2SCAN-3c, D4, dhf basis sets  
  Marvin Friede          : D4 for Fr, Ra, Ac-Lr                          
  Lars Goerigk           : TD-DFT with DH, B97 family of functionals     
  Stefan Grimme          : VdW corrections, initial TS optimization, DFT functionals, gCP, sTDA/sTD-DF 
  Waldemar Hujo          : DFT-NL                                        
  H. Jonsson             : NEB                                           
  Holger Kruse           : gCP                                           
  Marcel Mueller         : wB97X-3c, vDZP basis set                      
  Hagen Neugebauer       : wr2SCAN, Native XTB                           
  Gianluca Regni         : ADLD/ADEX                                     
  Tobias Risthaus        : pre 6.0 range-separated hybrid DFT and stability analysis
  Lukas Wittmann         : regularized MP2, r2SCAN double-hybrids, wr2SCAN        
                                                                         
We gratefully acknowledge several colleagues who have allowed us to      
interface, adapt or use parts of their codes:                            
  Ed Valeev, F. Pavosevic, A. Kumar             : LibInt (2-el integral package), F12 methods 
  Garnet Chan, S. Sharma, J. Yang, R. Olivares  : DMRG                   
  Ulf Ekstrom                                   : XCFun DFT Library      
  Mihaly Kallay                                 : mrcc  (arbitrary order and MRCC methods)
  Frank Weinhold                                : gennbo (NPA and NBO analysis)           
  Simon Mueller                                 : openCOSMO-RS                            
  Christopher J. Cramer and Donald G. Truhlar   : smd solvation model                     
  S Lehtola, MJT Oliveira, MAL Marques          : LibXC Library                           
  Liviu Ungur et al                             : ANISO software                          


 Your calculation uses the libint2 library for the computation of 2-el integrals
 For citations please refer to: http://libint.valeyev.net

 Your ORCA version has been built with support for libXC version: 7.0.0
 For citations please refer to: https://libxc.gitlab.io

 This ORCA versions uses:
   CBLAS   interface :  Fast vector & matrix operations
   LAPACKE interface :  Fast linear algebra routines
   Shared memory     :  Shared parallel matrices


  ***********************************
  * Starting time: Tue Jul 21 14:27:03 2026
  * Host name:     DESKTOP-19Q153E
  * Process ID:    31380
  * Working dir.:  C:\Users\ysm04\Documents\etc\uv_vis\calculations\02_tddft_orca\enolA\enolA_c000\b3lyp_def2svp\ethanol\dftopt
  ***********************************

NOTE: MaxCore=2500 MB was set to SCF,MP2,MDCI,CIPSI,MRCI,RASCI and CIS
      => If you want to overwrite this, your respective input block should be placed after the MaxCore statement
================================================================================

----- Orbital basis set information -----
Your calculation utilizes the basis: def2-SVP
   F. Weigend and R. Ahlrichs, Phys. Chem. Chem. Phys. 7, 3297 (2005).

----- AuxJ basis set information -----
Your calculation utilizes the auxiliary basis: def2/J
   H-Rn: F. Weigend, Phys. Chem. Chem. Phys. 8, 1057 (2006).
   Fr-Lr: K. Eichkorn, F. Weigend, O. Treutler, R. Ahlrichs; Theor. Chem. Acc. 97, 119 (1997).

================================================================================
                                        WARNINGS
                       Please study these warnings very carefully!
================================================================================


WARNING: CIS/ROCIS methods need fully converged wavefunctions
  ===> : Setting SCFConvForced true
         You can overwrite this default with %scf ConvForced false 


================================================================================
                                       INPUT FILE
================================================================================
NAME = td.inp
|  1> # enolA / enolA_c000 / b3lyp_def2svp / solvent=ethanol
|  2> ! B3LYP def2-SVP RIJCOSX def2/J TightSCF CPCM(Ethanol)
|  3> %pal nprocs 4 end
|  4> %maxcore 2500
|  5> %scf
|  6>   MaxIter 300
|  7> end
|  8> %tddft
|  9>   nroots 18
| 10>   tda    true
| 11>   maxdim 5
| 12> end
| 13> * xyz 0 1
| 14> C     -6.4464437539     0.1126843508    -0.2593233986
| 15> C     -5.3361748559    -0.1997566761     0.7608485581
| 16> C     -5.5371897047     0.7137443489     1.9936696337
| 17> C     -5.4722864059    -1.6803002750     1.1898519635
| 18> C     -3.9289767496     0.0334154976     0.1810493147
| 19> C     -3.7071144182     0.4984888100    -1.1266125553
| 20> C     -2.4164415614     0.6983681094    -1.6220910513
| 21> C     -1.2857629286     0.4362406950    -0.8291848868
| 22> C     -1.4983311564    -0.0265346848     0.4852593253
| 23> C     -2.7877900426    -0.2199399260     0.9719343279
| 24> C      0.0661703711     0.6497965916    -1.3897923632
| 25> O      0.0959623555     1.1970521222    -2.5936299767
| 26> C      1.2453135767     0.3092001534    -0.7436873683
| 27> C      2.5143919797     0.5518716766    -1.3809546772
| 28> O      2.5637497138     1.0794761367    -2.5280956999
| 29> C      3.7909493267     0.1872035299    -0.7074185620
| 30> C      3.8566385347    -0.4226743177     0.5648627044
| 31> C      5.0779430177    -0.7416595820     1.1430608111
| 32> C      6.2837306116    -0.4610959975     0.4677297204
| 33> O      7.4195074738    -0.8061302538     1.1074695819
| 34> C      8.6774055050    -0.5574544669     0.4926290353
| 35> C      6.2369092305     0.1464803654    -0.8015222796
| 36> C      5.0026336411     0.4597930029    -1.3684818177
| 37> H     -7.4303823884    -0.0730354629     0.1997522890
| 38> H     -6.4235142386     1.1655688153    -0.5825094635
| 39> H     -6.3715275103    -0.5231652080    -1.1558806775
| 40> H     -4.8001801122     0.5052431310     2.7846378949
| 41> H     -6.5415054293     0.5575691011     2.4210923868
| 42> H     -5.4469597023     1.7765308362     1.7155420539
| 43> H     -4.7326606539    -1.9552110716     1.9576123761
| 44> H     -6.4756107231    -1.8625293559     1.6091547159
| 45> H     -5.3355855113    -2.3541618969     0.3283118147
| 46> H     -4.5487296010     0.7132874607    -1.7855896260
| 47> H     -2.2801745558     1.0595150762    -2.6425276291
| 48> H     -0.6531578318    -0.2329382632     1.1444467590
| 49> H     -2.9038633140    -0.5776821109     1.9976351182
| 50> H      1.0918641651     1.2666262333    -2.8276495632
| 51> H      1.2023191057    -0.1496735751     0.2388864970
| 52> H      2.9465878604    -0.6567904380     1.1193437919
| 53> H      5.1286203622    -1.2138327796     2.1268720903
| 54> H      9.4401348508    -0.9175984082     1.1951761860
| 55> H      8.7740776218    -1.1038265241    -0.4608167348
| 56> H      8.8300752892     0.5196754114     0.3101075653
| 57> H      7.1517318187     0.3762545366    -1.3484469876
| 58> H      4.9636467270     0.9301998824    -2.3527211866
| 59> *
| 60> 
| 61>                          ****END OF INPUT****
================================================================================

                       ****************************
                       * Single Point Calculation *
                       ****************************

---------------------------------
CARTESIAN COORDINATES (ANGSTROEM)
---------------------------------
  C     -6.446444    0.112684   -0.259323
  C     -5.336175   -0.199757    0.760849
  C     -5.537190    0.713744    1.993670
  C     -5.472286   -1.680300    1.189852
  C     -3.928977    0.033415    0.181049
  C     -3.707114    0.498489   -1.126613
  C     -2.416442    0.698368   -1.622091
  C     -1.285763    0.436241   -0.829185
  C     -1.498331   -0.026535    0.485259
  C     -2.787790   -0.219940    0.971934
  C      0.066170    0.649797   -1.389792
  O      0.095962    1.197052   -2.593630
  C      1.245314    0.309200   -0.743687
  C      2.514392    0.551872   -1.380955
  O      2.563750    1.079476   -2.528096
  C      3.790949    0.187204   -0.707419
  C      3.856639   -0.422674    0.564863
  C      5.077943   -0.741660    1.143061
  C      6.283731   -0.461096    0.467730
  O      7.419507   -0.806130    1.107470
  C      8.677406   -0.557454    0.492629
  C      6.236909    0.146480   -0.801522
  C      5.002634    0.459793   -1.368482
  H     -7.430382   -0.073035    0.199752
  H     -6.423514    1.165569   -0.582509
  H     -6.371528   -0.523165   -1.155881
  H     -4.800180    0.505243    2.784638
  H     -6.541505    0.557569    2.421092
  H     -5.446960    1.776531    1.715542
  H     -4.732661   -1.955211    1.957612
  H     -6.475611   -1.862529    1.609155
  H     -5.335586   -2.354162    0.328312
  H     -4.548730    0.713287   -1.785590
  H     -2.280175    1.059515   -2.642528
  H     -0.653158   -0.232938    1.144447
  H     -2.903863   -0.577682    1.997635
  H      1.091864    1.266626   -2.827650
  H      1.202319   -0.149674    0.238886
  H      2.946588   -0.656790    1.119344
  H      5.128620   -1.213833    2.126872
  H      9.440135   -0.917598    1.195176
  H      8.774078   -1.103827   -0.460817
  H      8.830075    0.519675    0.310108
  H      7.151732    0.376255   -1.348447
  H      4.963647    0.930200   -2.352721

----------------------------
CARTESIAN COORDINATES (A.U.)
----------------------------
  NO LB      ZA    FRAG     MASS         X           Y           Z
   0 C     6.0000    0    12.011  -12.182013    0.212943   -0.490050
   1 C     6.0000    0    12.011  -10.083909   -0.377485    1.437795
   2 C     6.0000    0    12.011  -10.463772    1.348781    3.767490
   3 C     6.0000    0    12.011  -10.341123   -3.175307    2.248494
   4 C     6.0000    0    12.011   -7.424690    0.063146    0.342134
   5 C     6.0000    0    12.011   -7.005431    0.942007   -2.128989
   6 C     6.0000    0    12.011   -4.566413    1.319724   -3.065308
   7 C     6.0000    0    12.011   -2.429740    0.824375   -1.566932
   8 C     6.0000    0    12.011   -2.831436   -0.050143    0.917007
   9 C     6.0000    0    12.011   -5.268160   -0.415626    1.836690
  10 C     6.0000    0    12.011    0.125044    1.227938   -2.626327
  11 O     8.0000    0    15.999    0.181343    2.262101   -4.901250
  12 C     6.0000    0    12.011    2.353302    0.584304   -1.405365
  13 C     6.0000    0    12.011    4.751512    1.042886   -2.609626
  14 O     8.0000    0    15.999    4.844785    2.039914   -4.777409
  15 C     6.0000    0    12.011    7.163856    0.353763   -1.336827
  16 C     6.0000    0    12.011    7.287991   -0.798739    1.067436
  17 C     6.0000    0    12.011    9.595922   -1.401533    2.160072
  18 C     6.0000    0    12.011   11.874530   -0.871345    0.883881
  19 O     8.0000    0    15.999   14.020837   -1.523365    2.092814
  20 C     6.0000    0    12.011   16.397920   -1.053436    0.930934
  21 C     6.0000    0    12.011   11.786050    0.276808   -1.514658
  22 C     6.0000    0    12.011    9.453608    0.868883   -2.586056
  23 H     1.0000    0     1.008  -14.041388   -0.138017    0.377477
  24 H     1.0000    0     1.008  -12.138683    2.202606   -1.100783
  25 H     1.0000    0     1.008  -12.040442   -0.988639   -2.184298
  26 H     1.0000    0     1.008   -9.071026    0.954771    5.262203
  27 H     1.0000    0     1.008  -12.361654    1.053653    4.575202
  28 H     1.0000    0     1.008  -10.293262    3.357157    3.241905
  29 H     1.0000    0     1.008   -8.943433   -3.694813    3.699351
  30 H     1.0000    0     1.008  -12.237131   -3.519670    3.040862
  31 H     1.0000    0     1.008  -10.082795   -4.448721    0.620419
  32 H     1.0000    0     1.008   -8.595853    1.347918   -3.374275
  33 H     1.0000    0     1.008   -4.308905    2.002193   -4.993654
  34 H     1.0000    0     1.008   -1.234289   -0.440190    2.162691
  35 H     1.0000    0     1.008   -5.487506   -1.091661    3.774983
  36 H     1.0000    0     1.008    2.063324    2.393577   -5.343483
  37 H     1.0000    0     1.008    2.272054   -0.282842    0.451430
  38 H     1.0000    0     1.008    5.568244   -1.241154    2.115253
  39 H     1.0000    0     1.008    9.691688   -2.293812    4.019206
  40 H     1.0000    0     1.008   17.839270   -1.734010    2.258556
  41 H     1.0000    0     1.008   16.580604   -2.085930   -0.870817
  42 H     1.0000    0     1.008   16.686424    0.982044    0.586018
  43 H     1.0000    0     1.008   13.514815    0.711018   -2.548196
  44 H     1.0000    0     1.008    9.379933    1.757823   -4.445999

--------------------------------
INTERNAL COORDINATES (ANGSTROEM)
--------------------------------
 C      0   0   0     0.000000000000     0.00000000     0.00000000
 C      1   0   0     1.539827017036     0.00000000     0.00000000
 C      2   1   0     1.547494393062   108.32252607     0.00000000
 C      2   1   3     1.547442930816   108.32380625   118.59671689
 C      2   1   3     1.539721707196   112.25733399   239.31257266
 C      5   2   1     1.405523264216   123.00525437     0.90792869
 C      6   5   2     1.396884783226   121.54720552   180.05437645
 C      7   6   5     1.405647586614   121.09478317     0.22167811
 C      8   7   6     1.409648853560   117.76926951   359.59039694
 C      9   8   7     1.391747953000   120.75729722     0.25695190
 C      8   7   6     1.479057304639   119.63780405   179.55341126
 O     11   8   7     1.322724906314   115.16887244     5.71867714
 C     11   8   7     1.387024259868   124.40514727   186.17418321
 C     13  11   8     1.440680076952   120.09610843   179.61130818
 O     14  13  11     1.263619870924   120.41783059     0.24186954
 C     14  13  11     1.488701587248   120.92865880   180.31789940
 C     16  14  13     1.412432540645   123.58610579     0.79359268
 C     17  16  14     1.388398101997   121.01363246   179.92562899
 C     18  17  16     1.410216908357   120.46373683     0.00000000
 O     19  18  17     1.348445330416   116.23686621   179.98421279
 C     20  19  18     1.422032349010   119.68257916   179.95036917
 C     19  18  17     1.407956646345   119.28318389   359.97559811
 C     22  19  18     1.393931188133   119.54490686     0.00000000
 H      1   2   3     1.101534190394   109.49569801   300.44422457
 H      1   2   3     1.101608229273   111.91884918    59.63973691
 H      1   2   3     1.101695084554   111.90204027   181.21525631
 H      3   2   1     1.101038912813   111.93590592   177.27170678
 H      3   2   1     1.102601919358   110.09197542    57.48708006
 H      3   2   1     1.102275610529   110.94768857   297.99705327
 H      4   2   1     1.100944253931   111.91006265   182.66883369
 H      4   2   1     1.102579666773   110.09640422   302.47412699
 H      4   2   1     1.102283107032   110.93509981    61.96708588
 H      6   5   2     1.090277650863   120.37581830     0.00000000
 H      7   6   5     1.091002583753   119.63876979   179.94011247
 H      9   8   7     1.091534909446   120.55996048   180.73647294
 H     10   9   8     1.092480931830   118.18076985   180.13861984
 H     12  11   8     1.025390724634   104.93123783   180.32907171
 H     13  11   8     1.085294901865   119.46414074     0.23525067
 H     17  16  14     1.091078303319   120.77236401     0.00000000
 H     18  17  16     1.092428649779   121.00771313   180.03200025
 H     21  20  19     1.097739592233   106.29218002   179.91850040
 H     21  20  19     1.103144033922   111.38300309   298.82611001
 H     21  20  19     1.103100595932   111.39053386    60.98325592
 H     22  19  18     1.090331680661   121.01314900   179.97702950
 H     23  22  19     1.091572144682   119.68485751   180.04521979

---------------------------
INTERNAL COORDINATES (A.U.)
---------------------------
 C      0   0   0     0.000000000000     0.00000000     0.00000000
 C      1   0   0     2.909851355811     0.00000000     0.00000000
 C      2   1   0     2.924340596665   108.32252607     0.00000000
 C      2   1   3     2.924243347114   108.32380625   118.59671689
 C      2   1   3     2.909652349053   112.25733399   239.31257266
 C      5   2   1     2.656054044224   123.00525437     0.90792869
 C      6   5   2     2.639729680938   121.54720552   180.05437645
 C      7   6   5     2.656288979507   121.09478317     0.22167811
 C      8   7   6     2.663850278224   117.76926951   359.59039694
 C      9   8   7     2.630022478615   120.75729722     0.25695190
 C      8   7   6     2.795013242143   119.63780405   179.55341126
 O     11   8   7     2.499587823451   115.16887244     5.71867714
 C     11   8   7     2.621095992255   124.40514727   186.17418321
 C     13  11   8     2.722490792036   120.09610843   179.61130818
 O     14  13  11     2.387895493427   120.41783059     0.24186954
 C     14  13  11     2.813238295033   120.92865880   180.31789940
 C     16  14  13     2.669110684458   123.58610579     0.79359268
 C     17  16  14     2.623692177630   121.01363246   179.92562899
 C     18  17  16     2.664923746220   120.46373683     0.00000000
 O     19  18  17     2.548192381052   116.23686621   179.98421279
 C     20  19  18     2.687251693205   119.68257916   179.95036917
 C     19  18  17     2.660652470026   119.28318389   359.97559811
 C     22  19  18     2.634148195102   119.54490686     0.00000000
 H      1   2   3     2.081597946996   109.49569801   300.44422457
 H      1   2   3     2.081737860201   111.91884918    59.63973691
 H      1   2   3     2.081901992894   111.90204027   181.21525631
 H      3   2   1     2.080662008007   111.93590592   177.27170678
 H      3   2   1     2.083615662322   110.09197542    57.48708006
 H      3   2   1     2.082999028000   110.94768857   297.99705327
 H      4   2   1     2.080483128645   111.91006265   182.66883369
 H      4   2   1     2.083573611031   110.09640422   302.47412699
 H      4   2   1     2.083013194339   110.93509981    61.96708588
 H      6   5   2     2.060326170065   120.37581830     0.00000000
 H      7   6   5     2.061696094694   119.63876979   179.94011247
 H      9   8   7     2.062702044468   120.55996048   180.73647294
 H     10   9   8     2.064489767690   118.18076985   180.13861984
 H     12  11   8     1.937707649821   104.93123783   180.32907171
 H     13  11   8     2.050910139066   119.46414074     0.23525067
 H     17  16  14     2.061839183936   120.77236401     0.00000000
 H     18  17  16     2.064390968932   121.00771313   180.03200025
 H     21  20  19     2.074427195683   106.29218002   179.91850040
 H     21  20  19     2.084640110381   111.38300309   298.82611001
 H     21  20  19     2.084558024477   111.39053386    60.98325592
 H     22  19  18     2.060428271587   121.01314900   179.97702950
 H     23  22  19     2.062772408865   119.68485751   180.04521979

---------------------
BASIS SET INFORMATION
---------------------
There are 3 groups of distinct atoms

 Group   1 Type C   : 7s4p1d contracted to 3s2p1d pattern {511/31/1}
 Group   2 Type O   : 7s4p1d contracted to 3s2p1d pattern {511/31/1}
 Group   3 Type H   : 4s1p contracted to 2s1p pattern {31/1}

Atom   0C    basis set group =>   1
Atom   1C    basis set group =>   1
Atom   2C    basis set group =>   1
Atom   3C    basis set group =>   1
Atom   4C    basis set group =>   1
Atom   5C    basis set group =>   1
Atom   6C    basis set group =>   1
Atom   7C    basis set group =>   1
Atom   8C    basis set group =>   1
Atom   9C    basis set group =>   1
Atom  10C    basis set group =>   1
Atom  11O    basis set group =>   2
Atom  12C    basis set group =>   1
Atom  13C    basis set group =>   1
Atom  14O    basis set group =>   2
Atom  15C    basis set group =>   1
Atom  16C    basis set group =>   1
Atom  17C    basis set group =>   1
Atom  18C    basis set group =>   1
Atom  19O    basis set group =>   2
Atom  20C    basis set group =>   1
Atom  21C    basis set group =>   1
Atom  22C    basis set group =>   1
Atom  23H    basis set group =>   3
Atom  24H    basis set group =>   3
Atom  25H    basis set group =>   3
Atom  26H    basis set group =>   3
Atom  27H    basis set group =>   3
Atom  28H    basis set group =>   3
Atom  29H    basis set group =>   3
Atom  30H    basis set group =>   3
Atom  31H    basis set group =>   3
Atom  32H    basis set group =>   3
Atom  33H    basis set group =>   3
Atom  34H    basis set group =>   3
Atom  35H    basis set group =>   3
Atom  36H    basis set group =>   3
Atom  37H    basis set group =>   3
Atom  38H    basis set group =>   3
Atom  39H    basis set group =>   3
Atom  40H    basis set group =>   3
Atom  41H    basis set group =>   3
Atom  42H    basis set group =>   3
Atom  43H    basis set group =>   3
Atom  44H    basis set group =>   3
---------------------------------
AUXILIARY/J BASIS SET INFORMATION
---------------------------------
There are 3 groups of distinct atoms

 Group   1 Type C   : 12s5p4d2f1g contracted to 6s4p3d1f1g pattern {711111/2111/211/2/1}
 Group   2 Type O   : 12s5p4d2f1g contracted to 6s4p3d1f1g pattern {711111/2111/211/2/1}
 Group   3 Type H   : 5s2p1d contracted to 3s1p1d pattern {311/2/1}

Atom   0C    basis set group =>   1
Atom   1C    basis set group =>   1
Atom   2C    basis set group =>   1
Atom   3C    basis set group =>   1
Atom   4C    basis set group =>   1
Atom   5C    basis set group =>   1
Atom   6C    basis set group =>   1
Atom   7C    basis set group =>   1
Atom   8C    basis set group =>   1
Atom   9C    basis set group =>   1
Atom  10C    basis set group =>   1
Atom  11O    basis set group =>   2
Atom  12C    basis set group =>   1
Atom  13C    basis set group =>   1
Atom  14O    basis set group =>   2
Atom  15C    basis set group =>   1
Atom  16C    basis set group =>   1
Atom  17C    basis set group =>   1
Atom  18C    basis set group =>   1
Atom  19O    basis set group =>   2
Atom  20C    basis set group =>   1
Atom  21C    basis set group =>   1
Atom  22C    basis set group =>   1
Atom  23H    basis set group =>   3
Atom  24H    basis set group =>   3
Atom  25H    basis set group =>   3
Atom  26H    basis set group =>   3
Atom  27H    basis set group =>   3
Atom  28H    basis set group =>   3
Atom  29H    basis set group =>   3
Atom  30H    basis set group =>   3
Atom  31H    basis set group =>   3
Atom  32H    basis set group =>   3
Atom  33H    basis set group =>   3
Atom  34H    basis set group =>   3
Atom  35H    basis set group =>   3
Atom  36H    basis set group =>   3
Atom  37H    basis set group =>   3
Atom  38H    basis set group =>   3
Atom  39H    basis set group =>   3
Atom  40H    basis set group =>   3
Atom  41H    basis set group =>   3
Atom  42H    basis set group =>   3
Atom  43H    basis set group =>   3
Atom  44H    basis set group =>   3


           ************************************************************
           *        Program running with 4 parallel MPI-processes     *
           *              working on a common directory               *
           ************************************************************
------------------------------------------------------------------------------
                             ORCA STARTUP CALCULATIONS
                           -- RI-GTO INTEGRALS CHOSEN --
------------------------------------------------------------------------------
------------------------------------------------------------------------------
                   ___                                                        
                  /   \      - P O W E R E D   B Y -                         
                 /     \                                                     
                 |  |  |   _    _      __       _____    __    __             
                 |  |  |  | |  | |    /  \     |  _  \  |  |  /  |          
                  \  \/   | |  | |   /    \    | | | |  |  | /  /          
                 / \  \   | |__| |  /  /\  \   | |_| |  |  |/  /          
                |  |  |   |  __  | /  /__\  \  |    /   |      \           
                |  |  |   | |  | | |   __   |  |    \   |  |\   \          
                \     /   | |  | | |  |  |  |  | |\  \  |  | \   \       
                 \___/    |_|  |_| |__|  |__|  |_| \__\ |__|  \__/        
                                                                              
                      - O R C A' S   B I G   F R I E N D -                    
                                      &                                       
                       - I N T E G R A L  F E E D E R -                       
                                                                              
 v1 FN, 2020, v2 2021, v3 2022-2024                                           
------------------------------------------------------------------------------


----------------------
SHARK INTEGRAL PACKAGE
----------------------

Number of atoms                             ...     45
Number of basis functions                   ...    432
Number of shells                            ...    204
Maximum angular momentum                    ...      2
Integral batch strategy                     ... SHARK/LIBINT Hybrid
RI-J (if used) integral strategy            ... SPLIT-RIJ (Revised 2003 algorithm where possible)
Printlevel                                  ...      1
Contraction scheme used                     ... SEGMENTED contraction
Prescreening option                         ... SCHWARTZ
   Thresh                                   ... 2.500e-11
   Tcut                                     ... 2.500e-12
   Tpresel                                  ... 2.500e-12 
Coulomb Range Separation                    ... NOT USED
Exchange Range Separation                   ... NOT USED
Multipole approximations                    ... NOT USED
Finite Nucleus Model                        ... NOT USED
CABS basis                                  ... NOT available
Auxiliary Coulomb fitting basis             ... AVAILABLE
   # of basis functions in Aux-J            ...   1369
   # of shells in Aux-J                     ...    455
   Maximum angular momentum in Aux-J        ...      4
Auxiliary J/K fitting basis                 ... NOT available
Auxiliary Correlation fitting basis         ... NOT available
Auxiliary 'external' fitting basis          ... NOT available

Checking pre-screening integrals            ... done (  0.0 sec) Dimension = 204
   => SHARK Basis and OBASIS are compatible. Storing Pre-screening
Shell pair information
Shell pair cut-off parameter TPreSel        ...   2.5e-12
Total number of shell pairs                 ...     20910
Shell pairs after pre-screening             ...     12199
Total number of primitive shell pairs       ...     75056
Primitive shell pairs kept                  ...     28783
          la=0 lb=0:   3857 shell pairs
          la=1 lb=0:   4557 shell pairs
          la=1 lb=1:   1397 shell pairs
          la=2 lb=0:   1410 shell pairs
          la=2 lb=1:    843 shell pairs
          la=2 lb=2:    135 shell pairs

Checking whether 4 symmetric matrices of dimension 432 fit in memory
:Max Core in MB      =   2500.00
 MB in use           =     15.41
 MB left             =   2484.59
 MB needed           =      2.85
 Data fit in memory  = YES
Calculating RI/J V-Matrix + Cholesky decomp.... done (  0.1 sec)
Calculating Nuclear repulsion               ... done (  0.0 sec) ENN=   1726.234492521343 Eh

Diagonalization of the overlap matrix:
Smallest eigenvalue                        ... 2.690e-04
Time for diagonalization                   ...    0.020 sec
Threshold for overlap eigenvalues          ... 1.000e-07
Number of eigenvalues below threshold      ... 0
Time for construction of square roots      ...    0.015 sec
Total time needed                          ...    0.039 sec

-------------------
DFT GRID GENERATION
-------------------

General Integration Accuracy     IntAcc      ... 4.388
Radial Grid Type                 RadialGrid  ... OptM3 with GC (2021)
Angular Grid (max. ang.)         AngularGrid ... 4 (Lebedev-302)
Angular grid pruning method      GridPruning ... 4 (adaptive)
Weight generation scheme         WeightScheme... mBecke (2022)
Basis function cutoff            BFCut       ... 1.0000e-11
Integration weight cutoff        WCut        ... 1.0000e-14
Partially contracted basis set               ... off
Rotationally invariant grid construction     ... off
Angular grids for H and He will be reduced by one unit

Total number of grid points                  ...   207660
Total number of batches                      ...     3270
Average number of points per batch           ...       63
Average number of grid points per atom       ...     4615

--------------------
COSX GRID GENERATION
--------------------

GRIDX 1
-------
General Integration Accuracy     IntAcc      ... 3.816
Radial Grid Type                 RadialGrid  ... OptM3 with GC (2021)
Angular Grid (max. ang.)         AngularGrid ... 1 (Lebedev-50)
Angular grid pruning method      GridPruning ... 4 (adaptive)
Weight generation scheme         WeightScheme... mBecke (2022)
Basis function cutoff            BFCut       ... 1.0000e-11
Integration weight cutoff        WCut        ... 1.0000e-14
Partially contracted basis set               ... on
Rotationally invariant grid construction     ... off
Angular grids for H and He will be reduced by one unit

Total number of grid points                  ...    26489
Total number of batches                      ...      234
Average number of points per batch           ...      113
Average number of grid points per atom       ...      589
UseSFitting                                  ... on

GRIDX 2
-------
General Integration Accuracy     IntAcc      ... 4.020
Radial Grid Type                 RadialGrid  ... OptM3 with GC (2021)
Angular Grid (max. ang.)         AngularGrid ... 2 (Lebedev-110)
Angular grid pruning method      GridPruning ... 4 (adaptive)
Weight generation scheme         WeightScheme... mBecke (2022)
Basis function cutoff            BFCut       ... 1.0000e-11
Integration weight cutoff        WCut        ... 1.0000e-14
Partially contracted basis set               ... on
Rotationally invariant grid construction     ... off
Angular grids for H and He will be reduced by one unit

Total number of grid points                  ...    56824
Total number of batches                      ...      467
Average number of points per batch           ...      121
Average number of grid points per atom       ...     1263
UseSFitting                                  ... on

GRIDX 3
-------
General Integration Accuracy     IntAcc      ... 4.338
Radial Grid Type                 RadialGrid  ... OptM3 with GC (2021)
Angular Grid (max. ang.)         AngularGrid ... 3 (Lebedev-194)
Angular grid pruning method      GridPruning ... 4 (adaptive)
Weight generation scheme         WeightScheme... mBecke (2022)
Basis function cutoff            BFCut       ... 1.0000e-11
Integration weight cutoff        WCut        ... 1.0000e-14
Partially contracted basis set               ... on
Rotationally invariant grid construction     ... off
Angular grids for H and He will be reduced by one unit

Total number of grid points                  ...   124093
Total number of batches                      ...      985
Average number of points per batch           ...      125
Average number of grid points per atom       ...     2758
UseSFitting                                  ... on
Grids setup in   4.9 sec
Initializing property integral containers    ... done (  0.1 sec)

SHARK setup successfully completed in   5.4 seconds

Maximum memory used throughout the entire STARTUP-calculation: 57.8 MB


           ************************************************************
           *        Program running with 4 parallel MPI-processes     *
           *              working on a common directory               *
           ************************************************************
-------------------------------------------------------------------------------
                                 ORCA GUESS
                   Start orbitals & Density for SCF / CASSCF
-------------------------------------------------------------------------------

------------
SCF SETTINGS
------------
Hamiltonian:
 Density Functional     Method          .... DFT(GTOs)
 Exchange Functional    Exchange        .... B88
   X-Alpha parameter    XAlpha          ....  0.666667
   Becke's b parameter  XBeta           ....  0.004200
 Correlation Functional Correlation     .... LYP
 LDA part of GGA corr.  LDAOpt          .... VWN-5
 Gradients option       PostSCFGGA      .... off
 Hybrid DFT is turned on
   Fraction HF Exchange ScalHFX         ....  0.200000
   Scaling of DF-GGA-X  ScalDFX         ....  0.720000
   Scaling of DF-GGA-C  ScalDFC         ....  0.810000
   Scaling of DF-LDA-C  ScalLDAC        ....  1.000000
   Perturbative correction              ....  0.000000
   NL short-range parameter             ....  4.800000
 RI-approximation to the Coulomb term is turned on
   Number of AuxJ basis functions       .... 1369
   RIJ-COSX (HFX calculated with COS-X)).... on


General Settings:
 Integral files         IntName         .... td
 Hartree-Fock type      HFTyp           .... RHF
 Total Charge           Charge          ....    0
 Multiplicity           Mult            ....    1
 Number of Electrons    NEL             ....  166
 Basis Dimension        Dim             ....  432
 Nuclear Repulsion      ENuc            ....   1726.2344925213 Eh

Convergence Acceleration:
 AO-DIIS                CNVDIIS         .... on
   Start iteration      DIISMaxIt       ....    12
   Startup error        DIISStart       ....  0.200000
   # of expansion vecs  DIISMaxEq       ....     5
   Bias factor          DIISBfac        ....   1.050
   Max. coefficient     DIISMaxC        ....  10.000
 MO-DIIS                CNVKDIIS        .... off
 Trust-Rad. Augm. Hess. CNVTRAH         .... auto
   Auto Start mean grad. ratio tolernc. ....  1.125000
   Auto Start start iteration           ....    50
   Auto Start num. interpolation iter.  ....    10
   Max. Number of Micro iterations      ....    24
   Max. Number of Macro iterations      .... Maxiter - #DIIS iter
   Number of Davidson start vectors     ....     2
   Converg. threshold    (grad. norm)   ....   1.000e-05
   Grad. Scal. Fac. for Micro threshold ....   0.100
   Minimum threshold for Micro iter.    ....   1.000e-02
   NR start threshold (gradient norm)   ....   1.000e-04
   Initial trust radius                 ....   0.400
   Minimum AH scaling param. (alpha)    ....   1.000
   Maximum AH scaling param. (alpha)    .... 1000.000
   Quad. conv. algorithm                .... NR
   White noise on init. David. guess    .... on
   Maximum white noise                  ....   0.010
   Pseudo random numbers                .... off
   Inactive MOs                         .... canonical
   Orbital update algorithm             .... Taylor
   Preconditioner                       .... Diag
   Full preconditioner red. dimension   ....   250
 SOSCF                 CNVSOSCF           .... on
   Start iteration     SOSCFMaxIt         ....   150
   Startup grad/error  SOSCFStart         ....  0.003300
   Hessian update      SOSCFHessUp        .... L-BFGS
   Autom. constraints  SOSCFAutoConstrain .... off
 Level Shifting         CNVShift        .... on
   Level shift para.    LevelShift      ....    0.2500
   Turn off err/grad.   ShiftErr        ....    0.0010
 Zerner damping         CNVZerner       .... off
 Static damping         CNVDamp         .... on
   Fraction old density DampFac         ....    0.7000
   Max. Damping (<1)    DampMax         ....    0.9800
   Min. Damping (>=0)   DampMin         ....    0.0000
   Turn off err/grad.   DampErr         ....    0.1000

SCF Procedure:
 Maximum # iterations   MaxIter         ....   300
 SCF integral mode      SCFMode         .... Direct
   Integral package                     .... SHARK and LIBINT hybrid scheme
 Reset frequency        DirectResetFreq ....    20
 Integral Threshold     Thresh          ....  2.500e-11 Eh
 Primitive CutOff       TCut            ....  2.500e-12 Eh

Convergence Tolerance:
 Convergence Check Mode ConvCheckMode   .... Total+1el-Energy
 Convergence forced     ConvForced      .... 1
 Energy Change          TolE            ....  1.000e-08 Eh
 1-El. energy change                    ....  1.000e-05 Eh
 Orbital Gradient       TolG            ....  1.000e-05
 Orbital Rotation angle TolX            ....  1.000e-05
 DIIS Error             TolErr          ....  5.000e-07

------------------------------
INITIAL GUESS: MODEL POTENTIAL
------------------------------
Loading Hartree-Fock densities                     ... done
Calculating cut-offs                               ... done
Initializing the effective Hamiltonian             ... done
Setting up the integral package (SHARK)            ... done
Starting the Coulomb interaction                   ... done (   0.7 sec)
Making the grid                                    ... done (   0.6 sec)
Mapping shells                                     ... done
Starting the XC term evaluation                    ... done (   0.6 sec)
  promolecular density results
     # of electrons  =    165.989784060
     EX              =   -133.949550511
     EC              =     -5.597267832
     EX+EC           =   -139.546818343
Transforming the Hamiltonian                       ... done (   0.0 sec)
Diagonalizing the Hamiltonian                      ... done (   0.0 sec)
Back transforming the eigenvectors                 ... done (   0.0 sec)
Now organizing SCF variables                       ... done
                      ------------------
                      INITIAL GUESS DONE (   2.1 sec)
                      ------------------
             **** ENERGY FILE WAS UPDATED (td.en.tmp) ****
Finished Guess after   2.4 sec
Maximum memory used throughout the entire GUESS-calculation: 21.7 MB


           ************************************************************
           *        Program running with 4 parallel MPI-processes     *
           *              working on a common directory               *
           ************************************************************

-------------------------------------------------------------------------------------------
                                      ORCA LEAN-SCF
                              memory conserving SCF solver
-------------------------------------------------------------------------------------------

--------------------
CPCM SOLVATION MODEL
--------------------
CPCM parameters:
  Epsilon                                         ...      25.4510
  Refrac                                          ...       1.3611
  Rsolv                                           ...       1.3000
  Surface type                                    ... GAUSSIAN VDW
  Discretization scheme                           ... Constant charge density
    Threshold for H atoms                         ...       5.0000 (charges/Ang^2)
    Threshold for non-H atoms                     ...       5.0000 (charges/Ang^2)
  Epsilon function type                           ...         CPCM
Solvent:                                          ... ETHANOL
Radii:
  Scheme                                          ... Element-dependent radii
  Radius for C  used is    3.8550 Bohr (=   2.0400 Ang.)
  Radius for O  used is    3.4469 Bohr (=   1.8240 Ang.)
  Radius for H  used is    2.4944 Bohr (=   1.3200 Ang.)
Calculating surface                               ...        done! (  0.0s)
Cavity surface points                             ...         3814
Cavity Volume                                     ...    2632.3034
Cavity Surface-area                               ...    1350.7236
Calculating surface distance matrix               ...        done! (  0.1s)
Performing Cholesky decomposition & store         ...        done! (  0.7s)
Overall time for CPCM initialization              ...                 0.9s

----------------------------------------D-I-I-S--------------------------------------------
Iteration    Energy (Eh)           Delta-E    RMSDP     MaxDP     DIISErr   Damp  Time(sec)
-------------------------------------------------------------------------------------------
               ***  Starting incremental Fock matrix formation  ***
    1    -999.2355453076870617     0.00e+00  4.31e-03  8.16e-02  2.38e-01  0.700  15.5
    2    -999.4649552262749239    -2.29e-01  2.98e-03  4.98e-02  9.76e-02  0.700   9.5
                               ***Turning on AO-DIIS***
    3    -999.5620446350089878    -9.71e-02  1.35e-03  1.90e-02  4.00e-02  0.700   8.7
    4    -999.6192126823566468    -5.72e-02  2.53e-03  3.26e-02  2.13e-02  0.000  11.2
    5    -999.7421526814891877    -1.23e-01  3.73e-04  7.52e-03  5.96e-03  0.000  10.4
                              *** Initializing SOSCF ***
---------------------------------------S-O-S-C-F--------------------------------------
Iteration    Energy (Eh)           Delta-E    RMSDP     MaxDP     MaxGrad    Time(sec)
--------------------------------------------------------------------------------------
    6    -999.7428524086462858    -7.00e-04  1.30e-04  2.10e-03  1.75e-03     8.8
               *** Restarting incremental Fock matrix formation ***
    7    -999.7427700437124258     8.24e-05  8.91e-05  1.27e-03  2.25e-04    18.7
    8    -999.7427709712542310    -9.28e-07  3.34e-05  8.06e-04  3.13e-04    11.7
    9    -999.7427766238051845    -5.65e-06  2.21e-05  2.77e-04  9.92e-05     9.5
   10    -999.7427766201840313     3.62e-09  9.50e-06  1.61e-04  6.93e-05     9.9
                 **** Energy Check signals convergence ****

               *****************************************************
               *                     SUCCESS                       *
               *           SCF CONVERGED AFTER  10 CYCLES          *
               *****************************************************

Recomputing exchange energy using gridx3       ... done (   21.725 sec)
Old exchange energy                            :    -27.187758835 Eh
New exchange energy                            :    -27.187643750 Eh
Exchange energy change after final integration :      0.000115085 Eh
Total energy after final integration           :   -999.742662081 Eh
             **** ENERGY FILE WAS UPDATED (td.en.tmp) ****

----------------
TOTAL SCF ENERGY
----------------

Total Energy       :       -999.74266208061829 Eh          -27204.38088 eV

Components:
Nuclear Repulsion  :       1726.23449252134287 Eh           46973.22861 eV
Electronic Energy  :      -2725.96100663680090 Eh          -74177.17009 eV
One Electron Energy:      -4786.07580031071939 Eh         -130235.74358 eV
Two Electron Energy:       2060.11479367391848 Eh           56058.57350 eV
CPCM Dielectric    :         -0.01626305010421 Eh              -0.44254 eV

Virial components:
Potential Energy   :      -1989.22558413809656 Eh          -54129.58004 eV
Kinetic Energy     :        989.48292205747816 Eh           26925.19916 eV
Virial Ratio       :          2.01036878938932

DFT components:
N(Alpha)           :       83.000063616952 electrons
N(Beta)            :       83.000063616952 electrons
N(Total)           :      166.000127233904 electrons
E(X)               :     -107.982640803968 Eh       
E(C)               :       -6.594644916740 Eh       
E(XC)              :     -114.577285720708 Eh       

CPCM Solvation Model Properties:
Surface-charge          :         -0.03206425985968
Corrected charge        :          0.00000000000000
Outlying charge corr.   :          0.00004817668690 Eh               0.00131 eV
Free-energy (cav+disp)  :  This term is not implemented in the current solvation scheme

---------------
SCF CONVERGENCE
---------------

  Last Energy change         ...   -3.6212e-09  Tolerance :   1.0000e-08
  Last MAX-Density change    ...    1.6124e-04  Tolerance :   1.0000e-07
  Last RMS-Density change    ...    9.5021e-06  Tolerance :   5.0000e-09
  Last DIIS Error            ...    1.7486e-03  Tolerance :   5.0000e-07
  Last Orbital Gradient      ...    6.9277e-05  Tolerance :   1.0000e-05
  Last Orbital Rotation      ...    1.0558e-04  Tolerance :   1.0000e-05


----------------
ORBITAL ENERGIES
----------------

  NO   OCC          E(Eh)            E(eV) 
   0   2.0000     -19.170836      -521.6650 
   1   2.0000     -19.157474      -521.3014 
   2   2.0000     -19.119633      -520.2717 
   3   2.0000     -10.273037      -279.5436 
   4   2.0000     -10.271030      -279.4889 
   5   2.0000     -10.258807      -279.1563 
   6   2.0000     -10.237216      -278.5688 
   7   2.0000     -10.201401      -277.5942 
   8   2.0000     -10.200367      -277.5661 
   9   2.0000     -10.199848      -277.5520 
  10   2.0000     -10.199582      -277.5447 
  11   2.0000     -10.197141      -277.4783 
  12   2.0000     -10.196788      -277.4687 
  13   2.0000     -10.193827      -277.3881 
  14   2.0000     -10.193256      -277.3726 
  15   2.0000     -10.191749      -277.3316 
  16   2.0000     -10.190433      -277.2958 
  17   2.0000     -10.189615      -277.2735 
  18   2.0000     -10.188503      -277.2433 
  19   2.0000     -10.176607      -276.9196 
  20   2.0000     -10.172673      -276.8125 
  21   2.0000     -10.172613      -276.8109 
  22   2.0000     -10.170605      -276.7562 
  23   2.0000      -1.064055       -28.9544 
  24   2.0000      -1.063550       -28.9407 
  25   2.0000      -1.011786       -27.5321 
  26   2.0000      -0.858819       -23.3697 
  27   2.0000      -0.852193       -23.1894 
  28   2.0000      -0.811583       -22.0843 
  29   2.0000      -0.777126       -21.1467 
  30   2.0000      -0.758931       -20.6516 
  31   2.0000      -0.747734       -20.3469 
  32   2.0000      -0.741555       -20.1787 
  33   2.0000      -0.727289       -19.7905 
  34   2.0000      -0.697387       -18.9769 
  35   2.0000      -0.672294       -18.2940 
  36   2.0000      -0.670977       -18.2582 
  37   2.0000      -0.651047       -17.7159 
  38   2.0000      -0.620605       -16.8875 
  39   2.0000      -0.608131       -16.5481 
  40   2.0000      -0.598287       -16.2802 
  41   2.0000      -0.580744       -15.8029 
  42   2.0000      -0.562166       -15.2973 
  43   2.0000      -0.544877       -14.8268 
  44   2.0000      -0.536956       -14.6113 
  45   2.0000      -0.515723       -14.0335 
  46   2.0000      -0.499527       -13.5928 
  47   2.0000      -0.482673       -13.1342 
  48   2.0000      -0.475654       -12.9432 
  49   2.0000      -0.469573       -12.7777 
  50   2.0000      -0.459232       -12.4963 
  51   2.0000      -0.454755       -12.3745 
  52   2.0000      -0.446967       -12.1626 
  53   2.0000      -0.444647       -12.0995 
  54   2.0000      -0.434642       -11.8272 
  55   2.0000      -0.431543       -11.7429 
  56   2.0000      -0.430215       -11.7067 
  57   2.0000      -0.427108       -11.6222 
  58   2.0000      -0.423792       -11.5320 
  59   2.0000      -0.415249       -11.2995 
  60   2.0000      -0.411404       -11.1949 
  61   2.0000      -0.400189       -10.8897 
  62   2.0000      -0.390836       -10.6352 
  63   2.0000      -0.388620       -10.5749 
  64   2.0000      -0.387794       -10.5524 
  65   2.0000      -0.375325       -10.2131 
  66   2.0000      -0.370659       -10.0862 
  67   2.0000      -0.368926       -10.0390 
  68   2.0000      -0.359820        -9.7912 
  69   2.0000      -0.359627        -9.7860 
  70   2.0000      -0.356562        -9.7025 
  71   2.0000      -0.347582        -9.4582 
  72   2.0000      -0.328742        -8.9455 
  73   2.0000      -0.328343        -8.9347 
  74   2.0000      -0.324399        -8.8273 
  75   2.0000      -0.323972        -8.8157 
  76   2.0000      -0.315429        -8.5832 
  77   2.0000      -0.269725        -7.3396 
  78   2.0000      -0.265741        -7.2312 
  79   2.0000      -0.264440        -7.1958 
  80   2.0000      -0.258606        -7.0370 
  81   2.0000      -0.238500        -6.4899 
  82   2.0000      -0.222073        -6.0429 
  83   0.0000      -0.076787        -2.0895 
  84   0.0000      -0.024485        -0.6663 
  85   0.0000      -0.014200        -0.3864 
  86   0.0000      -0.012072        -0.3285 
  87   0.0000       0.034244         0.9318 
  88   0.0000       0.058959         1.6044 
  89   0.0000       0.068078         1.8525 
  90   0.0000       0.078162         2.1269 
  91   0.0000       0.089339         2.4310 
  92   0.0000       0.094272         2.5653 
  93   0.0000       0.099169         2.6985 
*Only the first 10 virtual orbitals were printed.

                    ********************************
                    * MULLIKEN POPULATION ANALYSIS *
                    ********************************

-----------------------
MULLIKEN ATOMIC CHARGES
-----------------------
   0 C :    0.085249
   1 C :   -0.247703
   2 C :    0.066456
   3 C :    0.064623
   4 C :    0.097092
   5 C :   -0.035702
   6 C :   -0.019859
   7 C :    0.045848
   8 C :   -0.023788
   9 C :   -0.047261
  10 C :    0.183572
  11 O :   -0.201512
  12 C :   -0.211509
  13 C :    0.206476
  14 O :   -0.357073
  15 C :    0.021890
  16 C :   -0.011949
  17 C :   -0.033797
  18 C :    0.236198
  19 O :   -0.319588
  20 C :    0.167864
  21 C :   -0.084843
  22 C :   -0.022251
  23 H :    0.009253
  24 H :    0.014085
  25 H :    0.013512
  26 H :    0.012258
  27 H :    0.011460
  28 H :    0.011130
  29 H :    0.012724
  30 H :    0.011622
  31 H :    0.011355
  32 H :   -0.007195
  33 H :   -0.006863
  34 H :   -0.001407
  35 H :    0.001721
  36 H :    0.206014
  37 H :    0.014245
  38 H :    0.004236
  39 H :   -0.005302
  40 H :    0.048084
  41 H :    0.041611
  42 H :    0.041928
  43 H :    0.003354
  44 H :   -0.006254
Sum of atomic charges:   -0.0000000

--------------------------------
MULLIKEN REDUCED ORBITAL CHARGES
--------------------------------
  0 C s       :     2.955495  s :     2.955495
      pz      :     0.977770  p :     2.931316
      px      :     0.968324
      py      :     0.985223
      dz2     :     0.004409  d :     0.027940
      dxz     :     0.006367
      dyz     :     0.006837
      dx2y2   :     0.008594
      dxy     :     0.001734

  1 C s       :     3.202198  s :     3.202198
      pz      :     1.032517  p :     2.994954
      px      :     0.955075
      py      :     1.007362
      dz2     :     0.008435  d :     0.050550
      dxz     :     0.011169
      dyz     :     0.010598
      dx2y2   :     0.013040
      dxy     :     0.007307

  2 C s       :     2.988383  s :     2.988383
      pz      :     0.954009  p :     2.917142
      px      :     0.993425
      py      :     0.969708
      dz2     :     0.004610  d :     0.028019
      dxz     :     0.008250
      dyz     :     0.005111
      dx2y2   :     0.008741
      dxy     :     0.001307

  3 C s       :     2.989365  s :     2.989365
      pz      :     0.984256  p :     2.918001
      px      :     0.994101
      py      :     0.939645
      dz2     :     0.002914  d :     0.028011
      dxz     :     0.006555
      dyz     :     0.007729
      dx2y2   :     0.007721
      dxy     :     0.003092

  4 C s       :     3.082016  s :     3.082016
      pz      :     0.921222  p :     2.779888
      px      :     0.931010
      py      :     0.927656
      dz2     :     0.009704  d :     0.041004
      dxz     :     0.012587
      dyz     :     0.005962
      dx2y2   :     0.006436
      dxy     :     0.006315

  5 C s       :     3.257509  s :     3.257509
      pz      :     0.932377  p :     2.744282
      px      :     0.823492
      py      :     0.988413
      dz2     :     0.007941  d :     0.033911
      dxz     :     0.011768
      dyz     :     0.004523
      dx2y2   :     0.005007
      dxy     :     0.004672

  6 C s       :     3.278640  s :     3.278640
      pz      :     0.834624  p :     2.706862
      px      :     0.930964
      py      :     0.941274
      dz2     :     0.007731  d :     0.034357
      dxz     :     0.010503
      dyz     :     0.003100
      dx2y2   :     0.005972
      dxy     :     0.007051

  7 C s       :     3.104565  s :     3.104565
      pz      :     0.903820  p :     2.810326
      px      :     0.888449
      py      :     1.018058
      dz2     :     0.009534  d :     0.039261
      dxz     :     0.011912
      dyz     :     0.005811
      dx2y2   :     0.006350
      dxy     :     0.005654

  8 C s       :     3.242112  s :     3.242112
      pz      :     0.928025  p :     2.747097
      px      :     0.854439
      py      :     0.964634
      dz2     :     0.008224  d :     0.034579
      dxz     :     0.011492
      dyz     :     0.004846
      dx2y2   :     0.005045
      dxy     :     0.004972

  9 C s       :     3.255396  s :     3.255396
      pz      :     0.850948  p :     2.757962
      px      :     0.933995
      py      :     0.973019
      dz2     :     0.008169  d :     0.033903
      dxz     :     0.010037
      dyz     :     0.003134
      dx2y2   :     0.006181
      dxy     :     0.006382

 10 C s       :     3.090191  s :     3.090191
      pz      :     0.840155  p :     2.644875
      px      :     0.948916
      py      :     0.855804
      dz2     :     0.022751  d :     0.081361
      dxz     :     0.021468
      dyz     :     0.016284
      dx2y2   :     0.009881
      dxy     :     0.010978

 11 O s       :     3.671976  s :     3.671976
      pz      :     1.382409  p :     4.515226
      px      :     1.481752
      py      :     1.651065
      dz2     :     0.005120  d :     0.014310
      dxz     :     0.002016
      dyz     :     0.003543
      dx2y2   :     0.002941
      dxy     :     0.000690

 12 C s       :     3.230023  s :     3.230023
      pz      :     0.915397  p :     2.954447
      px      :     0.913002
      py      :     1.126047
      dz2     :     0.005416  d :     0.027040
      dxz     :     0.008649
      dyz     :     0.003055
      dx2y2   :     0.005503
      dxy     :     0.004417

 13 C s       :     3.081447  s :     3.081447
      pz      :     0.860413  p :     2.622324
      px      :     0.937923
      py      :     0.823989
      dz2     :     0.022166  d :     0.089753
      dxz     :     0.030031
      dyz     :     0.016329
      dx2y2   :     0.008900
      dxy     :     0.012327

 14 O s       :     3.753840  s :     3.753840
      pz      :     1.352433  p :     4.588543
      px      :     1.757732
      py      :     1.478378
      dz2     :     0.005691  d :     0.014690
      dxz     :     0.002530
      dyz     :     0.004622
      dx2y2   :     0.001220
      dxy     :     0.000627

 15 C s       :     3.106095  s :     3.106095
      pz      :     0.903581  p :     2.834059
      px      :     0.906172
      py      :     1.024305
      dz2     :     0.008730  d :     0.037956
      dxz     :     0.011422
      dyz     :     0.005493
      dx2y2   :     0.006424
      dxy     :     0.005887

 16 C s       :     3.244959  s :     3.244959
      pz      :     0.938375  p :     2.731756
      px      :     0.844447
      py      :     0.948935
      dz2     :     0.008150  d :     0.035234
      dxz     :     0.010657
      dyz     :     0.005200
      dx2y2   :     0.005782
      dxy     :     0.005445

 17 C s       :     3.258860  s :     3.258860
      pz      :     0.837551  p :     2.742939
      px      :     0.914385
      py      :     0.991003
      dz2     :     0.006366  d :     0.031999
      dxz     :     0.009670
      dyz     :     0.003422
      dx2y2   :     0.006096
      dxy     :     0.006444

 18 C s       :     2.955427  s :     2.955427
      pz      :     0.945358  p :     2.732933
      px      :     0.844670
      py      :     0.942906
      dz2     :     0.014564  d :     0.075441
      dxz     :     0.022864
      dyz     :     0.008429
      dx2y2   :     0.013416
      dxy     :     0.016168

 19 O s       :     3.728487  s :     3.728487
      pz      :     1.650776  p :     4.574429
      px      :     1.176784
      py      :     1.746869
      dz2     :     0.002205  d :     0.016672
      dxz     :     0.006364
      dyz     :     0.002013
      dx2y2   :     0.002647
      dxy     :     0.003443

 20 C s       :     3.019809  s :     3.019809
      pz      :     0.978620  p :     2.760986
      px      :     0.754276
      py      :     1.028090
      dz2     :     0.007886  d :     0.051341
      dxz     :     0.014228
      dyz     :     0.006330
      dx2y2   :     0.014421
      dxy     :     0.008476

 21 C s       :     3.260956  s :     3.260956
      pz      :     0.928303  p :     2.791808
      px      :     0.834164
      py      :     1.029342
      dz2     :     0.008052  d :     0.032079
      dxz     :     0.008748
      dyz     :     0.004952
      dx2y2   :     0.005786
      dxy     :     0.004540

 22 C s       :     3.283700  s :     3.283700
      pz      :     0.845866  p :     2.703462
      px      :     0.945123
      py      :     0.912474
      dz2     :     0.007019  d :     0.035089
      dxz     :     0.010023
      dyz     :     0.003533
      dx2y2   :     0.006503
      dxy     :     0.008012

 23 H s       :     0.967620  s :     0.967620
      pz      :     0.005838  p :     0.023127
      px      :     0.011939
      py      :     0.005349

 24 H s       :     0.962649  s :     0.962649
      pz      :     0.005439  p :     0.023267
      px      :     0.004564
      py      :     0.013264

 25 H s       :     0.963240  s :     0.963240
      pz      :     0.010745  p :     0.023248
      px      :     0.004547
      py      :     0.007957

 26 H s       :     0.964461  s :     0.964461
      pz      :     0.009208  p :     0.023281
      px      :     0.009147
      py      :     0.004926

 27 H s       :     0.965387  s :     0.965387
      pz      :     0.005783  p :     0.023153
      px      :     0.012602
      py      :     0.004768

 28 H s       :     0.965899  s :     0.965899
      pz      :     0.004677  p :     0.022971
      px      :     0.005109
      py      :     0.013186

 29 H s       :     0.963969  s :     0.963969
      pz      :     0.009478  p :     0.023307
      px      :     0.009229
      py      :     0.004600

 30 H s       :     0.965231  s :     0.965231
      pz      :     0.006370  p :     0.023147
      px      :     0.012578
      py      :     0.004200

 31 H s       :     0.965672  s :     0.965672
      pz      :     0.010301  p :     0.022972
      px      :     0.005206
      py      :     0.007466

 32 H s       :     0.983805  s :     0.983805
      pz      :     0.007825  p :     0.023391
      px      :     0.010639
      py      :     0.004927

 33 H s       :     0.983635  s :     0.983635
      pz      :     0.013982  p :     0.023228
      px      :     0.003737
      py      :     0.005510

 34 H s       :     0.978055  s :     0.978055
      pz      :     0.008006  p :     0.023351
      px      :     0.010649
      py      :     0.004696

 35 H s       :     0.975091  s :     0.975091
      pz      :     0.013918  p :     0.023188
      px      :     0.003549
      py      :     0.005721

 36 H s       :     0.710324  s :     0.710324
      pz      :     0.013800  p :     0.083662
      px      :     0.056294
      py      :     0.013568

 37 H s       :     0.961179  s :     0.961179
      pz      :     0.013632  p :     0.024576
      px      :     0.003702
      py      :     0.007242

 38 H s       :     0.972287  s :     0.972287
      pz      :     0.006839  p :     0.023477
      px      :     0.011869
      py      :     0.004770

 39 H s       :     0.982216  s :     0.982216
      pz      :     0.013282  p :     0.023087
      px      :     0.003185
      py      :     0.006619

 40 H s       :     0.930096  s :     0.930096
      pz      :     0.008257  p :     0.021820
      px      :     0.007631
      py      :     0.005931

 41 H s       :     0.935763  s :     0.935763
      pz      :     0.012309  p :     0.022627
      px      :     0.002906
      py      :     0.007412

 42 H s       :     0.935439  s :     0.935439
      pz      :     0.004947  p :     0.022633
      px      :     0.003106
      py      :     0.014581

 43 H s       :     0.973007  s :     0.973007
      pz      :     0.006695  p :     0.023639
      px      :     0.011748
      py      :     0.005196

 44 H s       :     0.982854  s :     0.982854
      pz      :     0.013435  p :     0.023400
      px      :     0.003719
      py      :     0.006246



                     *******************************
                     * LOEWDIN POPULATION ANALYSIS *
                     *******************************

----------------------
LOEWDIN ATOMIC CHARGES
----------------------
   0 C :   -0.041859
   1 C :   -0.044592
   2 C :   -0.036103
   3 C :   -0.036345
   4 C :    0.008709
   5 C :   -0.032088
   6 C :   -0.003947
   7 C :   -0.060546
   8 C :   -0.005331
   9 C :   -0.024587
  10 C :    0.112520
  11 O :   -0.042456
  12 C :   -0.167571
  13 C :    0.093044
  14 O :   -0.229848
  15 C :   -0.087138
  16 C :    0.002128
  17 C :   -0.054255
  18 C :    0.062715
  19 O :   -0.100555
  20 C :    0.086250
  21 C :   -0.073915
  22 C :    0.013633
  23 H :    0.025791
  24 H :    0.023207
  25 H :    0.023174
  26 H :    0.022060
  27 H :    0.024240
  28 H :    0.023426
  29 H :    0.022060
  30 H :    0.024268
  31 H :    0.023460
  32 H :    0.034403
  33 H :    0.032149
  34 H :    0.037824
  35 H :    0.034010
  36 H :    0.045485
  37 H :    0.034224
  38 H :    0.039670
  39 H :    0.038177
  40 H :    0.033695
  41 H :    0.024231
  42 H :    0.024295
  43 H :    0.039994
  44 H :    0.032291

-------------------------------
LOEWDIN REDUCED ORBITAL CHARGES
-------------------------------
  0 C s       :     2.844335  s :     2.844335
      pz      :     1.036966  p :     3.126074
      px      :     1.033664
      py      :     1.055444
      dz2     :     0.010634  d :     0.071449
      dxz     :     0.017607
      dyz     :     0.017219
      dx2y2   :     0.021899
      dxy     :     0.004090

  1 C s       :     2.850816  s :     2.850816
      pz      :     1.033431  p :     3.078847
      px      :     1.012163
      py      :     1.033253
      dz2     :     0.017855  d :     0.114929
      dxz     :     0.027131
      dyz     :     0.024129
      dx2y2   :     0.031886
      dxy     :     0.013929

  2 C s       :     2.847722  s :     2.847722
      pz      :     1.020081  p :     3.117212
      px      :     1.058300
      py      :     1.038831
      dz2     :     0.011514  d :     0.071169
      dxz     :     0.020280
      dyz     :     0.014308
      dx2y2   :     0.022027
      dxy     :     0.003040

  3 C s       :     2.847671  s :     2.847671
      pz      :     1.054557  p :     3.117512
      px      :     1.058905
      py      :     1.004049
      dz2     :     0.007535  d :     0.071162
      dxz     :     0.016516
      dyz     :     0.019352
      dx2y2   :     0.020795
      dxy     :     0.006963

  4 C s       :     2.868216  s :     2.868216
      pz      :     1.053098  p :     3.019500
      px      :     1.040401
      py      :     0.926000
      dz2     :     0.026012  d :     0.103575
      dxz     :     0.034517
      dyz     :     0.013557
      dx2y2   :     0.016037
      dxy     :     0.013452

  5 C s       :     2.861853  s :     2.861853
      pz      :     1.043361  p :     3.080771
      px      :     1.048607
      py      :     0.988804
      dz2     :     0.021966  d :     0.089463
      dxz     :     0.033089
      dyz     :     0.010600
      dx2y2   :     0.013359
      dxy     :     0.010449

  6 C s       :     2.863292  s :     2.863292
      pz      :     1.037649  p :     3.051238
      px      :     1.056814
      py      :     0.956775
      dz2     :     0.020543  d :     0.089417
      dxz     :     0.029284
      dyz     :     0.006540
      dx2y2   :     0.017091
      dxy     :     0.015959

  7 C s       :     2.852837  s :     2.852837
      pz      :     1.063555  p :     3.103024
      px      :     1.027678
      py      :     1.011791
      dz2     :     0.026556  d :     0.104685
      dxz     :     0.034868
      dyz     :     0.013605
      dx2y2   :     0.017209
      dxy     :     0.012447

  8 C s       :     2.861876  s :     2.861876
      pz      :     1.036360  p :     3.053651
      px      :     1.055596
      py      :     0.961695
      dz2     :     0.022416  d :     0.089804
      dxz     :     0.031848
      dyz     :     0.011285
      dx2y2   :     0.013390
      dxy     :     0.010865

  9 C s       :     2.861430  s :     2.861430
      pz      :     1.035437  p :     3.074082
      px      :     1.056344
      py      :     0.982301
      dz2     :     0.021751  d :     0.089075
      dxz     :     0.028526
      dyz     :     0.006600
      dx2y2   :     0.017818
      dxy     :     0.014380

 10 C s       :     2.853765  s :     2.853765
      pz      :     0.908122  p :     2.851187
      px      :     1.076194
      py      :     0.866870
      dz2     :     0.051239  d :     0.182528
      dxz     :     0.050185
      dyz     :     0.034462
      dx2y2   :     0.023505
      dxy     :     0.023137

 11 O s       :     3.427720  s :     3.427720
      pz      :     1.434097  p :     4.587845
      px      :     1.513357
      py      :     1.640391
      dz2     :     0.009821  d :     0.026890
      dxz     :     0.004023
      dyz     :     0.006478
      dx2y2   :     0.005707
      dxy     :     0.000860

 12 C s       :     2.862595  s :     2.862595
      pz      :     1.063832  p :     3.226309
      px      :     1.032884
      py      :     1.129592
      dz2     :     0.016212  d :     0.078667
      dxz     :     0.026692
      dyz     :     0.007690
      dx2y2   :     0.016734
      dxy     :     0.011341

 13 C s       :     2.859802  s :     2.859802
      pz      :     0.952729  p :     2.839916
      px      :     1.051566
      py      :     0.835621
      dz2     :     0.050543  d :     0.207238
      dxz     :     0.073264
      dyz     :     0.035711
      dx2y2   :     0.020636
      dxy     :     0.027085

 14 O s       :     3.539087  s :     3.539087
      pz      :     1.444649  p :     4.664644
      px      :     1.725249
      py      :     1.494746
      dz2     :     0.010205  d :     0.026117
      dxz     :     0.004638
      dyz     :     0.008297
      dx2y2   :     0.001890
      dxy     :     0.001087

 15 C s       :     2.858051  s :     2.858051
      pz      :     1.053482  p :     3.126494
      px      :     1.037704
      py      :     1.035308
      dz2     :     0.023641  d :     0.102592
      dxz     :     0.033291
      dyz     :     0.013845
      dx2y2   :     0.017756
      dxy     :     0.014060

 16 C s       :     2.862306  s :     2.862306
      pz      :     1.030511  p :     3.044531
      px      :     1.053158
      py      :     0.960862
      dz2     :     0.021448  d :     0.091034
      dxz     :     0.029269
      dyz     :     0.012801
      dx2y2   :     0.014978
      dxy     :     0.012537

 17 C s       :     2.864885  s :     2.864885
      pz      :     1.034213  p :     3.103731
      px      :     1.048933
      py      :     1.020585
      dz2     :     0.016919  d :     0.085638
      dxz     :     0.027791
      dyz     :     0.007716
      dx2y2   :     0.017745
      dxy     :     0.015468

 18 C s       :     2.843091  s :     2.843091
      pz      :     1.034092  p :     2.919269
      px      :     0.931265
      py      :     0.953912
      dz2     :     0.034745  d :     0.174925
      dxz     :     0.055798
      dyz     :     0.019365
      dx2y2   :     0.030674
      dxy     :     0.034343

 19 O s       :     3.431806  s :     3.431806
      pz      :     1.662866  p :     4.637375
      px      :     1.239193
      py      :     1.735315
      dz2     :     0.003606  d :     0.031375
      dxz     :     0.012474
      dyz     :     0.002394
      dx2y2   :     0.006321
      dxy     :     0.006579

 20 C s       :     2.850450  s :     2.850450
      pz      :     1.039453  p :     2.945576
      px      :     0.827768
      py      :     1.078354
      dz2     :     0.018445  d :     0.117724
      dxz     :     0.032873
      dyz     :     0.015624
      dx2y2   :     0.032143
      dxy     :     0.018639

 21 C s       :     2.862346  s :     2.862346
      pz      :     1.037621  p :     3.125328
      px      :     1.053763
      py      :     1.033944
      dz2     :     0.021840  d :     0.086241
      dxz     :     0.025839
      dyz     :     0.012771
      dx2y2   :     0.015067
      dxy     :     0.010724

 22 C s       :     2.863101  s :     2.863101
      pz      :     1.028820  p :     3.032388
      px      :     1.055324
      py      :     0.948244
      dz2     :     0.018394  d :     0.090877
      dxz     :     0.027494
      dyz     :     0.007902
      dx2y2   :     0.018399
      dxy     :     0.018688

 23 H s       :     0.909668  s :     0.909668
      pz      :     0.016900  p :     0.064541
      px      :     0.034785
      py      :     0.012855

 24 H s       :     0.911779  s :     0.911779
      pz      :     0.014606  p :     0.065014
      px      :     0.012461
      py      :     0.037948

 25 H s       :     0.911862  s :     0.911862
      pz      :     0.031083  p :     0.064964
      px      :     0.012510
      py      :     0.021371

 26 H s       :     0.912829  s :     0.912829
      pz      :     0.027307  p :     0.065112
      px      :     0.024714
      py      :     0.013091

 27 H s       :     0.911323  s :     0.911323
      pz      :     0.016664  p :     0.064437
      px      :     0.035328
      py      :     0.012445

 28 H s       :     0.912187  s :     0.912187
      pz      :     0.013573  p :     0.064387
      px      :     0.012200
      py      :     0.038614

 29 H s       :     0.912752  s :     0.912752
      pz      :     0.025980  p :     0.065188
      px      :     0.024871
      py      :     0.014337

 30 H s       :     0.911293  s :     0.911293
      pz      :     0.016225  p :     0.064439
[...]
    73a ->  84a  :     0.029018 (c=  0.17034637)
    74a ->  83a  :     0.053246 (c=  0.23075146)
    78a ->  85a  :     0.014298 (c=  0.11957534)

Storing amplitudes in GBW file ... 
... GBW file created

-----------------------------
TD-DFT/TDA-EXCITATION SPECTRA
-----------------------------

Center of mass = (  1.2103,  0.1620, -0.4989)
Generating CIS transition densities           ... done

----------------------------------------------------------------------------------------------------
                     ABSORPTION SPECTRUM VIA TRANSITION ELECTRIC DIPOLE MOMENTS    
----------------------------------------------------------------------------------------------------
     Transition      Energy     Energy  Wavelength fosc(D2)      D2        DX        DY        DZ   
                      (eV)      (cm-1)    (nm)                 (au**2)    (au)      (au)      (au)  
----------------------------------------------------------------------------------------------------
  0-1A  ->  1-1A    3.595215   28997.4   344.9   1.318309974  14.96699   3.85846  -0.22320   0.17170
  0-1A  ->  2-1A    3.905800   31502.4   317.4   0.000141977   0.00148   0.02334  -0.02097  -0.02234
  0-1A  ->  3-1A    4.204001   33907.6   294.9   0.119207056   1.15739  -0.84362  -0.25766   0.61588
  0-1A  ->  4-1A    4.374087   35279.4   283.5   0.012468527   0.11635  -0.26846   0.06299  -0.20078
  0-1A  ->  5-1A    4.491527   36226.6   276.0   0.020330382   0.18475  -0.23585  -0.14564   0.32850
  0-1A  ->  6-1A    4.899367   39516.1   253.1   0.017547010   0.14619   0.08439  -0.16437   0.33473
  0-1A  ->  7-1A    5.070672   40897.7   244.5   0.086525881   0.69650  -0.14805  -0.32992   0.75215
  0-1A  ->  8-1A    5.153466   41565.5   240.6   0.015518701   0.12291  -0.33012   0.03206  -0.11359
  0-1A  ->  9-1A    5.220973   42110.0   237.5   0.013305455   0.10402  -0.31898   0.00102  -0.04764
  0-1A  -> 10-1A    5.455419   44000.9   227.3   0.180639055   1.35153  -1.00205   0.28389  -0.51655
  0-1A  -> 11-1A    5.502916   44384.0   225.3   0.082348635   0.61081  -0.71317  -0.11420   0.29860
  0-1A  -> 12-1A    5.645233   45531.9   219.6   0.008132447   0.05880   0.02912   0.09824  -0.21978
  0-1A  -> 13-1A    5.682111   45829.3   218.2   0.000579194   0.00416  -0.02326   0.04120  -0.04384
  0-1A  -> 14-1A    5.853055   47208.1   211.8   0.000900916   0.00628   0.00982   0.06730   0.04071
  0-1A  -> 15-1A    5.917795   47730.2   209.5   0.073730751   0.50855   0.71167  -0.01069   0.04426
  0-1A  -> 16-1A    6.018386   48541.6   206.0   0.000199041   0.00135  -0.00811  -0.03145  -0.01718
  0-1A  -> 17-1A    6.053931   48828.2   204.8   0.002859218   0.01928   0.01779   0.13361   0.03331
  0-1A  -> 18-1A    6.120854   49368.0   202.6   0.000196613   0.00131   0.01057   0.03370   0.00797

----------------------------------------------------------------------------------------------------
                     ABSORPTION SPECTRUM VIA TRANSITION VELOCITY DIPOLE MOMENTS    
----------------------------------------------------------------------------------------------------
     Transition      Energy     Energy  Wavelength fosc(P2)      P2        PX        PY        PZ   
                      (eV)      (cm-1)    (nm)                 (au**2)    (au)      (au)      (au)  
----------------------------------------------------------------------------------------------------
  0-1A  ->  1-1A    3.595215   28997.4   344.9   0.648910400   0.12860  -0.35747  -0.00028   0.02864
  0-1A  ->  2-1A    3.905800   31502.4   317.4   0.000109608   0.00002  -0.00243  -0.00378  -0.00184
  0-1A  ->  3-1A    4.204001   33907.6   294.9   0.037034954   0.00858   0.09238  -0.00038  -0.00689
  0-1A  ->  4-1A    4.374087   35279.4   283.5   0.003107873   0.00075   0.02209   0.00461  -0.01549
  0-1A  ->  5-1A    4.491527   36226.6   276.0   0.002089018   0.00052   0.02265  -0.00151   0.00143
  0-1A  ->  6-1A    4.899367   39516.1   253.1   0.000888184   0.00024   0.01473   0.00082  -0.00470
  0-1A  ->  7-1A    5.070672   40897.7   244.5   0.006475374   0.00181   0.01494   0.01638  -0.03631
  0-1A  ->  8-1A    5.153466   41565.5   240.6   0.002560452   0.00073  -0.00249  -0.01138   0.02432
  0-1A  ->  9-1A    5.220973   42110.0   237.5   0.014506203   0.00417   0.03639   0.02053  -0.04929
  0-1A  -> 10-1A    5.455419   44000.9   227.3   0.087420889   0.02629   0.16195  -0.00712   0.00314
  0-1A  -> 11-1A    5.502916   44384.0   225.3   0.045867106   0.01391   0.11299   0.01083  -0.03209
  0-1A  -> 12-1A    5.645233   45531.9   219.6   0.000353286   0.00011  -0.00568  -0.00406   0.00782
  0-1A  -> 13-1A    5.682111   45829.3   218.2   0.000037147   0.00001   0.00281   0.00004   0.00193
  0-1A  -> 14-1A    5.853055   47208.1   211.8   0.000386109   0.00012   0.00004  -0.01040  -0.00405
  0-1A  -> 15-1A    5.917795   47730.2   209.5   0.030370272   0.00991  -0.09694  -0.00628   0.02167
  0-1A  -> 16-1A    6.018386   48541.6   206.0   0.000104800   0.00003   0.00142   0.00516   0.00247
  0-1A  -> 17-1A    6.053931   48828.2   204.8   0.000403575   0.00013  -0.00301  -0.01081  -0.00297
  0-1A  -> 18-1A    6.120854   49368.0   202.6   0.000129971   0.00004  -0.00300  -0.00562  -0.00181

------------------------------------------------------------------------------------------
                     CD SPECTRUM VIA TRANSITION ELECTRIC DIPOLE MOMENTS    
------------------------------------------------------------------------------------------
     Transition      Energy     Energy  Wavelength    R        MX        MY        MZ   
                      (eV)      (cm-1)    (nm)   (1e40*cgs)   (au)      (au)      (au)  
------------------------------------------------------------------------------------------
  0-1A  ->  1-1A    3.595215   28997.4   344.9   -0.66231   0.01329   0.34693   0.16042
  0-1A  ->  2-1A    3.905800   31502.4   317.4    1.19947  -0.00875  -0.06180   0.16274
  0-1A  ->  3-1A    4.204001   33907.6   294.9   -1.27991  -0.01047  -0.25830  -0.11800
  0-1A  ->  4-1A    4.374087   35279.4   283.5   -0.69852  -0.00314   0.05496   0.01406
  0-1A  ->  5-1A    4.491527   36226.6   276.0   -0.15353   0.00306   0.09813   0.04670
  0-1A  ->  6-1A    4.899367   39516.1   253.1    0.29327  -0.00875  -0.08333  -0.04057
  0-1A  ->  7-1A    5.070672   40897.7   244.5   -2.29757  -0.00122  -0.11869  -0.04582
  0-1A  ->  8-1A    5.153466   41565.5   240.6    0.88598   0.00158   0.09994   0.04016
  0-1A  ->  9-1A    5.220973   42110.0   237.5   -0.76434  -0.00195  -0.06987  -0.02244
  0-1A  -> 10-1A    5.455419   44000.9   227.3   -1.29914  -0.00133   0.01119   0.00339
  0-1A  -> 11-1A    5.502916   44384.0   225.3   -0.29648  -0.00472  -0.18650  -0.08048
  0-1A  -> 12-1A    5.645233   45531.9   219.6    3.25442   0.01203   0.00346   0.03455
  0-1A  -> 13-1A    5.682111   45829.3   218.2   -3.81283  -0.03772   0.05218  -0.11543
  0-1A  -> 14-1A    5.853055   47208.1   211.8   -0.07489   0.04158  -0.00152  -0.00362
  0-1A  -> 15-1A    5.917795   47730.2   209.5   -1.75887   0.00458   0.04645   0.02194
  0-1A  -> 16-1A    6.018386   48541.6   206.0    0.04795   0.04489  -0.00979   0.00266
  0-1A  -> 17-1A    6.053931   48828.2   204.8    1.11678   0.04758  -0.06842   0.17787
  0-1A  -> 18-1A    6.120854   49368.0   202.6   -0.11847  -0.01957   0.00302   0.04474

------------------------------------------------------------------------------------------
                     CD SPECTRUM VIA TRANSITION VELOCITY DIPOLE MOMENTS    
------------------------------------------------------------------------------------------
     Transition      Energy     Energy  Wavelength    R        MX        MY        MZ   
                      (eV)      (cm-1)    (nm)   (1e40*cgs)   (au)      (au)      (au)  
------------------------------------------------------------------------------------------
  0-1A  ->  1-1A    3.595215   28997.4   344.9   -0.91082   0.01329   0.34693   0.16042
  0-1A  ->  2-1A    3.905800   31502.4   317.4   -0.14684  -0.00875  -0.06180   0.16274
  0-1A  ->  3-1A    4.204001   33907.6   294.9   -0.17601  -0.01047  -0.25830  -0.11800
  0-1A  ->  4-1A    4.374087   35279.4   283.5   -0.09858  -0.00314   0.05496   0.01406
  0-1A  ->  5-1A    4.491527   36226.6   276.0   -0.03375   0.00306   0.09813   0.04670
  0-1A  ->  6-1A    4.899367   39516.1   253.1   -0.01689  -0.00875  -0.08333  -0.04057
  0-1A  ->  7-1A    5.070672   40897.7   244.5   -0.75384  -0.00122  -0.11869  -0.04582
  0-1A  ->  8-1A    5.153466   41565.5   240.6   -0.40980   0.00158   0.09994   0.04016
  0-1A  ->  9-1A    5.220973   42110.0   237.5   -0.98028  -0.00195  -0.06987  -0.02244
  0-1A  -> 10-1A    5.455419   44000.9   227.3   -0.66751  -0.00133   0.01119   0.00339
  0-1A  -> 11-1A    5.502916   44384.0   225.3    0.06919  -0.00472  -0.18650  -0.08048
  0-1A  -> 12-1A    5.645233   45531.9   219.6    0.42681   0.01203   0.00346   0.03455
  0-1A  -> 13-1A    5.682111   45829.3   218.2   -0.73693  -0.03772   0.05218  -0.11543
  0-1A  -> 14-1A    5.853055   47208.1   211.8    0.07036   0.04158  -0.00152  -0.00362
  0-1A  -> 15-1A    5.917795   47730.2   209.5   -0.56351   0.00458   0.04645   0.02194
  0-1A  -> 16-1A    6.018386   48541.6   206.0    0.04180   0.04489  -0.00979   0.00266
  0-1A  -> 17-1A    6.053931   48828.2   204.8    0.14301   0.04758  -0.06842   0.17787
  0-1A  -> 18-1A    6.120854   49368.0   202.6   -0.08210  -0.01957   0.00302   0.04474

Total run time:      186.486 sec

           *** ORCA-CIS/TD-DFT FINISHED WITHOUT ERROR ***
-----------------------
CIS/TD-DFT TOTAL ENERGY
-----------------------

    E(SCF)  =   -999.742662081 Eh
    DE(CIS) =      0.132121731 Eh (Root  1)
    ----------------------------- ---------
    E(tot)  =   -999.610540350 Eh


Maximum memory used throughout the entire CIS-calculation: 725.6 MB
=> NOW LEAVING ORCA_CIS

-------------------------   --------------------
FINAL SINGLE POINT ENERGY      -999.610540349718
-------------------------   --------------------



           ************************************************************
           *        Program running with 4 parallel MPI-processes     *
           *              working on a common directory               *
           ************************************************************

------------------------------------------------------------------------------
                              ORCA PROPERTY CALCULATIONS
------------------------------------------------------------------------------

GBWName                                 ... td.gbw
Number of atoms                         ...     45
Number of basis functions               ...    432
Max core memory                         ...   2500 MB

Electric properties:
Dipole moment                           ... YES
Quadrupole moment                       ...  NO
Static polarizability (Dipole/Dipole)   ...  NO
Static polarizability (Dipole/Quad.)    ...  NO
Static polarizability (Quad./Quad.)     ...  NO
Static polarizability (Velocity)        ...  NO
Static hyperpolarizability              ...  NO

Atomic electric properties:
Dipole moment                           ...  NO
Quadrupole moment                       ...  NO
Static polarizability                   ...  NO

Choice of electric origin               ... Center of mass
Position of electric origin             ...     1.210340     0.162023    -0.498887

General magnetic properties:
Magnetizability                         ...  NO

EPR properties:
g-Tensor (aka g-matrix)                 ...  NO
Zero-Field splitting spin-orbit         ...  NO
Zero-field splitting spin-spin          ...  NO
Hyperfine couplings                     ...  NO (   0 nuclei)
Quadrupole couplings                    ...  NO (   0 nuclei)
Contact density                         ...  NO (   0 nuclei)

NMR properties:
Chemical shifts                         ...  NO (   0 nuclei)
Spin-rotation constants                 ...  NO (   0 nuclei)
Spin-spin couplings                     ...  NO (   0 nuclei,    0 pairs)

Choice of magnetic origin               ... GIAO
Position of magnetic origin             ...     0.000000     0.000000     0.000000

Properties with geometric perturbations:
SCF Hessian                             ...  NO
IR spectrum                             ...  NO
VCD spectrum                            ...  NO
X-ray spectroscopy properties:
SCF XES/XAS/RIXS spectra                ...  NO

SCF SOC stabilization energy            ...  NO
Diagonal Born-Oppenheimer correction    ...  NO

-------------
DIPOLE MOMENT
-------------

Method             : SCF
Type of density    : Electron Density
Multiplicity       :   1
Irrep              :   0
Energy             :  -999.7426620806182882 Eh
Basis              : AO
                                X                 Y                 Z
Electronic contribution:     26.906741288       3.646010488      -9.563764297
Nuclear contribution   :    -26.622495753      -4.331659261      11.023216910
                        -----------------------------------------
Total Dipole Moment    :      0.284245535      -0.685648774       1.459452613
                        -----------------------------------------
Magnitude (a.u.)       :      1.637348984
Magnitude (Debye)      :      4.161810372



--------------------
Rotational spectrum 
--------------------
 
Rotational constants in cm-1:             0.024910             0.002523             0.002328 
Rotational constants in MHz :           746.791397            75.639829            69.799933 

Dipole components along the rotational axes: 
x,y,z [a.u.] :     0.252636    -1.617704    -0.010945 
x,y,z [Debye]:     0.642149    -4.111878    -0.027820 

 

Dipole moment calculation done in   0.0 sec 

Maximum memory used throughout the entire PROP-calculation: 22.7 MB

--------------------------------
SUGGESTED CITATIONS FOR THIS RUN
--------------------------------

Below you find a list of papers that are relevant to this ORCA run
We neither can nor want to force you to cite these papers, but we appreciate if you do
You receive ORCA, which is the product of decades of hard work by many enthusiastic individuals, for free
The only thing we kindly ask in return is that you cite our papers,
We deeply appreciate it, if you show your appreciation for ORCA by not just citing the generic ORCA reference.

Please note that relegating all ORCA citations to the supporting information does *not* help us.
SI sections are not indexed - citations you put there will not count into any citation statistics
But we need these citations in order to attract the funding resources that allow us to do what we are doing

Therefore, if you are a happy ORCA user, please consider citing a few of the papers listed below in the main body of your paper

In addition to the list printed below, the program has created the file td.bibtex that contains the list in bibtex format
You can import this file easily into all common literature databanks and citation aid programs

It goes without saying that in many instances, there are alternative algorithms to achieve similar
results as the ones you have gotten from ORCA. It is, of course, also the case that in some instances
ORCA just re-implements algorithms worked out by others. We are fully aware of that and we are also
fully appreciative of our colleagues work. Hence this citation list should not be read as indicating
that the listed papers, which are focused on our own work, are the only ones worth citing. It simply
meant to make it easier for users to cite ORCA specific papers. It is not a substitute for doing your
own literature research and citing the relevant literature in a scientifically appropriate manner.

List of essential papers. We consider these as the minimum necessary citations

  1. Neese, F.
     Software update: the ORCA program system, version 6.0
     WIRES Comput. Molec. Sci. 2025 15(1), e70019
     doi.org/10.1002/wcms.70019

List of papers to cite with high priority. The work reported in these papers was absolutely
necessary for this run to complete.
Our perspective: the developers of density functionals and basis sets usually get cited in chemistry papers
Good! But without the algorithms to do something with them, the functionals or basis sets would not do anything.
Hence, in our opinion, the algorithm design and method developments papers are equally worthy of getting cited

  1. Neese, F.; Olbrich, G.
     Efficient use of the resolution of the identity approximation in time-dependent density functional calculations with hybrid density functionals
     Chem. Phys. Lett. 2002 362 , 170-178
     doi.org/10.1016/s0009-2614(02)01053-9
  2. Neese, F.
     An improvement of the resolution of the identity approximation for the formation of the Coulomb matrix
     J. Comp. Chem. 2003 24(14), 1740-1747
     doi.org/10.1002/jcc.10318
  3. Neese, F.; Wennmohs, F.; Hansen, A.; Becker, U.
     Efficient, approximate and parallel Hartree-Fock and hybrid DFT calculations. A 'chain-of-spheres' algorithm for the Hartree-Fock exchange
     Chem. Phys. 2009 356(1-3), 98-109
     doi.org/10.1016/j.chemphys.2008.10.036
  4. Garcia-Rates, M.; Neese, F.
     Effect of the Solute Cavity on the Solvation Energy and its Derivatives within the Framework of the Gaussian Charge Scheme
     J. Comput. Chem. 2020 41 , 922-939
     doi.org/10.1002/jcc.26139
  5. Helmich-Paris, B.; de Souza, B.; Neese, F.; Izsák, R.
     An improved chain of spheres for exchange algorithm
     J. Chem. Phys. 2021 155(10), 104109
     doi.org/10.1063/5.0058766
  6. Neese, F.
     The SHARK Integral Generation and Digestion System
     J. Comp. Chem. 2022 44(3), 381
     doi.org/10.1002/jcc.26942

List of suggested additional citations. These are papers that are important in the 'surrounding' of 
of this run, or papers that preceded the highly important papers. If you like your results we are grateful for a citation.

  1. Izsak, R.; Neese, F.
     An overlap fitted chain of spheres exchange method
     J. Chem. Phys. 2011 135 , 144105
     doi.org/10.1063/1.3646921
  2. Izsak, R.; Hansen, A.; Neese, F.
     The resolution of identity and chain of spheres approximations for the LPNO-CCSD singles Fock term
     Molec. Phys. 2012 110 , 2413-2417
     doi.org/10.1080/00268976.2012.687466
  3. Neese, F.
     The ORCA program system
     WIRES Comput. Molec. Sci. 2012 2(1), 73-78
     doi.org/10.1002/wcms.81
  4. Izsak, R.; Neese, F.; Klopper, W.
     Robust fitting techniques in the chain of spheres approximation to the Fock exchange: The role of the complementary space
     J. Chem. Phys. 2013 139 , 
     doi.org/10.1063/1.4819264
  5. Neese, F.
     Software update: the ORCA program system, version 4.0
     WIRES Comput. Molec. Sci. 2018 8(1), 1-6
     doi.org/10.1002/wcms.1327
  6. Neese, F.; Wennmohs, F.; Becker, U.; Riplinger, C.
     The ORCA quantum chemistry program package
     J. Chem. Phys. 2020 152(22), 224108
     doi.org/10.1063/5.0004608
  7. Neese, F.
     Software update: The ORCA program system—Version 5.0
     WIRES Comput. Molec. Sci. 2022 12(1), e1606
     doi.org/10.1002/wcms.1606

List of optional additional citations

  1. Neese, F.
     Approximate second-order SCF convergence for spin unrestricted wavefunctions
     Chem. Phys. Lett. 2000 325(1-3), 93-98
     doi.org/10.1016/s0009-2614(00)00662-x

Timings for individual modules:

Sum of individual times          ...      341.906 sec (=   5.698 min)
Startup calculation              ...        5.637 sec (=   0.094 min)   1.6 %
SCF iterations                   ...      148.533 sec (=   2.476 min)  43.4 %
Property integrals               ...        0.669 sec (=   0.011 min)   0.2 %
Property calculations            ...        0.286 sec (=   0.005 min)   0.1 %
CIS module                       ...      186.781 sec (=   3.113 min)  54.6 %
                             ****ORCA TERMINATED NORMALLY****
TOTAL RUN TIME: 0 days 0 hours 5 minutes 42 seconds 602 msec
