
                                 *****************
                                 * O   R   C   A *
                                 *****************

                                            #,                                       
                                            ###                                      
                                            ####                                     
                                            #####                                    
                                            ######                                   
                                           ########,                                 
                                     ,,################,,,,,                         
                               ,,#################################,,                 
                          ,,##########################################,,             
                       ,#########################################, ''#####,          
                    ,#############################################,,   '####,        
                  ,##################################################,,,,####,       
                ,###########''''           ''''###############################       
              ,#####''   ,,,,##########,,,,          '''####'''          '####       
            ,##' ,,,,###########################,,,                        '##       
           ' ,,###''''                  '''############,,,                           
         ,,##''                                '''############,,,,        ,,,,,,###''
      ,#''                                            '''#######################'''  
     '                                                          ''''####''''         
             ,#######,   #######,   ,#######,      ##                                
            ,#'     '#,  ##    ##  ,#'     '#,    #''#        ,####,    ,#,          
            ##       ##  ##   ,#'  ##            #'  '#       #'       ,# #          
            ##       ##  #######   ##           ,######,      #####,      #          
            '#,     ,#'  ##    ##  '#,     ,#' ,#      #,     #,   #      #          
             '#######'   ##     ##  '#######'  #'      '#     '####' #    #          



                #########################################################
                #                        -***-                          #
                #          Department of theory and spectroscopy        #
                #                                                       #
                #                      Frank Neese                      #
                #                                                       #
                #     Directorship, Architecture, Infrastructure        #
                #                    SHARK, DRIVERS                     #
                #        Core code/Algorithms in most modules           #
                #                                                       #
                #        Max Planck Institute fuer Kohlenforschung      #
                #                Kaiser Wilhelm Platz 1                 #
                #                 D-45470 Muelheim/Ruhr                 #
                #                      Germany                          #
                #                                                       #
                #                  All rights reserved                  #
                #                        -***-                          #
                #########################################################


                         Program Version 6.1.1  -  RELEASE   -


 With contributions from (in alphabetic order):
[Max-Planck-Institut fuer Kohlenforschung]                               
  Daniel Aravena         : Magnetic Suceptibility                        
  Michael Atanasov       : Ab Initio Ligand Field Theory (pilot matlab implementation)
  Alexander A. Auer      : GIAO ZORA, VPT2 properties, NMR spectrum      
  Ute Becker             : All parallelization in ORCA, NUMFREQ, NUMCALC 
  Giovanni Bistoni       : ED, misc. LED, open-shell LED, HFLD           
  Dmytro Bykov           : pre 5.0 version of the SCF Hessian            
  Marcos Casanova-Páez   : Triplet and SCS-CIS(D). UHF-(DLPNO)-IP/EA/STEOM-CCSD. UHF-CVS-IP/STEOM-CCSD   
  Vijay G. Chilkuri      : MRCI spin determinant printing, contributions to CSF-ICE 
  Pauline Colinet        : FMM embedding                                 
  Dipayan Datta          : RHF DLPNO-CCSD density                        
  Achintya Kumar Dutta   : EOM-CC, STEOM-CC                              
  Nicolas Foglia         : Exact transition moments, OPA infrastructure, MCD improvements    
  Dmitry Ganyushin       : Spin-Orbit,Spin-Spin,Magnetic field MRCI      
  Miquel Garcia-Rates    : C-PCM and meta-GGA Hessian, CCSD/C-PCM, Gaussian charge scheme 
  Tiago L. C. Gouveia    : GS-ROHF, GS-ROCIS                             
  Yang Guo               : DLPNO-NEVPT2, F12-NEVPT2, CIM, IAO-localization        
  Andreas Hansen         : Spin unrestricted coupled pair/coupled cluster methods 
  Ingolf Harden          : AUTO-CI MPn and infrastructure                
  Benjamin Helmich-Paris : MC-RPA, TRAH-(SCF,CASSCF), AVAS, COSX integrals, SCF dyn. polar., MC-PDFT, srDFT 
  Lee Huntington         : MR-EOM, pCC                                   
  Robert Izsak           : Overlap fitted RIJCOSX, COSX-SCS-MP3, EOM     
  Riya Kayal             : Wick's Theorem for AUTO-CI, AUTO-CI UHF-CCSDT 
  Emily Kempfer          : AUTO-CI RHF CISDT and CCSDT, approximate NEVPT4
  Christian Kollmar      : KDIIS, OOCD, Brueckner-CCSD(T), CCSD density, CASPT2, CASPT2-K, improved NEVPT2 
  Axel Koslowski         : Symmetry handling                             
  Simone Kossmann        : meta-GGA functionals, TD-DFT gradient, OOMP2, (MP2 Hessian; deprecated post 5.0) 
  Lucas Lang             : DCDCAS, Hyperfine gauge corrections, ICE-SOC+SSC
  Marvin Lechner         : AUTO-CI (C++ implementation), FIC-MRCC        
  Spencer Leger          : CASSCF response                               
  Dagmar Lenk            : GEPOL surface, SMD, ORCA-2-JSON               
  Dimitrios Liakos       : Extrapolation schemes; Compound Job, Property file
  Dimitrios Manganas     : Further ROCIS development; embedding schemes. LFT, Crystal Embedding 
  Dimitrios Pantazis     : SARC Basis sets                               
  Anastasios Papadopoulos: AUTO-CI, single reference methods and gradients 
  Taras Petrenko         : pre 6.0 DFT Hessian and TD-DFT gradient,  ECA, NRVS 
  Petra Pikulova         : Analytic Raman intensities                    
  Peter Pinski           : DLPNO-MP2, DLPNO-MP2 Gradient                 
  Shashank Vittal Rao    : ES-AILFT, MagRelax                            
  Christoph Reimann      : Effective Core Potentials                     
  Marius Retegan         : Local ZFS, SOC                                
  Christoph Riplinger    : Optimizer, TS searches, QM/MM, DLPNO-CCSD(T), (RO)-DLPNO pert. Triples 
  Michael Roemelt        : Original ROCIS implementation, recursive CI coupling coefficients
  Masaaki Saitow         : Open-shell DLPNO-CCSD energy and density      
  Barbara Sandhoefer     : DKH picture change effects                    
  Yorick L. A. Schmerwitz: GMF and freeze-and-release deltaSCF, NEB S-IDPP initial path                    
  Kantharuban Sivalingam : CASSCF convergence/infrastructure, NEVPT2, NEVPT3, NEVPT4(SD), FIC-MRCI and CEPA variants
  Bernardo de Souza      : ESD, SOC TD-DFT                               
  Georgi L. Stoychev     : AutoAux, RI-MP2 NMR, DLPNO-MP2 response, X2C  
  Van Anh Tran           : RI-MP2 g-tensors                              
  Willem Van den Heuvel  : Paramagnetic NMR                              
  Zikuan Wang            : NOTCH, Electric field optimization            
  Frank Wennmohs         : Technical directorship and infrastructure     
  Hang Xu                : AUTO-CI-Response properties                   
                                                                         
[FACCTs GmbH]                                                            
  Markus Bursch, Nicolas Foglia, Miquel Garcia-Rates, Ingolf Harden, Hagen Neugebauer, Anastasios Papadopoulos, 
  Christoph Riplinger, Bernardo de Souza, Georgi L. Stoychev                                                    
                                                                 
  APM, various basis sets, CI-OPT, improved COSX, DLPNO-Multilevel,           
  DOCKER, DRACO, updates on ESD, Fragmentator, GOAT, IRC, LR-CPCM, L-BFGS, MBIS, meta-GGA TD-DFT gradient, ML-optimized integration grids, 
  MM, NACMEs, nearIR, NEB, NEB-TS, NL-DFT gradient (VV10), 2- and 3-layer-ONIOM, interface openCOSMO-RS, QMMM,   
  Crystal-QMMM, RESP, rigid body optimization, SF, symmetry and pop. for TD-DFT, various functionals, SOLVATOR                                   
                                                                         
[Other institutions]                                                     
  V. Asgeirsson          : NEB                                           
  Christoph Bannwarth    : sTDA-DFT, sTD-DFT, PBEh-3c, B97-3c, D3        
  Giovanni Bistoni       : ETS/NOCV, ADLD/ADEX, COVALED                  
  Martin Brehm           : Molecular dynamics                            
  Ronald Cardenas        : ETS/NOCV                                      
  Martina Colucci        : COVALED                                       
  Sebastian Ehlert       : rSCAN, r2SCAN, r2SCAN-3c, D4, dhf basis sets  
  Marvin Friede          : D4 for Fr, Ra, Ac-Lr                          
  Lars Goerigk           : TD-DFT with DH, B97 family of functionals     
  Stefan Grimme          : VdW corrections, initial TS optimization, DFT functionals, gCP, sTDA/sTD-DF 
  Waldemar Hujo          : DFT-NL                                        
  H. Jonsson             : NEB                                           
  Holger Kruse           : gCP                                           
  Marcel Mueller         : wB97X-3c, vDZP basis set                      
  Hagen Neugebauer       : wr2SCAN, Native XTB                           
  Gianluca Regni         : ADLD/ADEX                                     
  Tobias Risthaus        : pre 6.0 range-separated hybrid DFT and stability analysis
  Lukas Wittmann         : regularized MP2, r2SCAN double-hybrids, wr2SCAN        
                                                                         
We gratefully acknowledge several colleagues who have allowed us to      
interface, adapt or use parts of their codes:                            
  Ed Valeev, F. Pavosevic, A. Kumar             : LibInt (2-el integral package), F12 methods 
  Garnet Chan, S. Sharma, J. Yang, R. Olivares  : DMRG                   
  Ulf Ekstrom                                   : XCFun DFT Library      
  Mihaly Kallay                                 : mrcc  (arbitrary order and MRCC methods)
  Frank Weinhold                                : gennbo (NPA and NBO analysis)           
  Simon Mueller                                 : openCOSMO-RS                            
  Christopher J. Cramer and Donald G. Truhlar   : smd solvation model                     
  S Lehtola, MJT Oliveira, MAL Marques          : LibXC Library                           
  Liviu Ungur et al                             : ANISO software                          


 Your calculation uses the libint2 library for the computation of 2-el integrals
 For citations please refer to: http://libint.valeyev.net

 Your ORCA version has been built with support for libXC version: 7.0.0
 For citations please refer to: https://libxc.gitlab.io

 This ORCA versions uses:
   CBLAS   interface :  Fast vector & matrix operations
   LAPACKE interface :  Fast linear algebra routines
   Shared memory     :  Shared parallel matrices


  ***********************************
  * Starting time: Thu Jul 23 12:02:50 2026
  * Host name:     DESKTOP-19Q153E
  * Process ID:    28956
  * Working dir.:  C:\Users\ysm04\Documents\etc\uv_vis\molecules\dhhb\calculations\01_dft_opt\dhhb\dhhb_c131
  ***********************************

NOTE: MaxCore=2500 MB was set to SCF,MP2,MDCI,CIPSI,MRCI,RASCI and CIS
      => If you want to overwrite this, your respective input block should be placed after the MaxCore statement
================================================================================

----- Orbital basis set information -----
Your calculation utilizes the basis: def2-SVP
   F. Weigend and R. Ahlrichs, Phys. Chem. Chem. Phys. 7, 3297 (2005).

----- AuxJ basis set information -----
Your calculation utilizes the auxiliary basis: def2/J
   H-Rn: F. Weigend, Phys. Chem. Chem. Phys. 8, 1057 (2006).
   Fr-Lr: K. Eichkorn, F. Weigend, O. Treutler, R. Ahlrichs; Theor. Chem. Acc. 97, 119 (1997).

================================================================================
                                        WARNINGS
                       Please study these warnings very carefully!
================================================================================


WARNING: Geometry Optimization
  ===> : Switching off AutoStart
         For restart on a previous wavefunction, please use MOREAD

================================================================================
                                       INPUT FILE
================================================================================
NAME = opt.inp
|  1> # geometry optimization: dhhb / dhhb_c131
|  2> ! B3LYP def2-SVP RIJCOSX def2/J TightSCF Opt CPCM(Ethanol)
|  3> %pal nprocs 4 end
|  4> %maxcore 2500
|  5> %scf
|  6>   MaxIter 300
|  7> end
|  8> * xyz 0 1
|  9> C      7.3232077296     1.9697066310     0.1456274261
| 10> C      8.3049725356     0.8272421300    -0.0930191298
| 11> C      7.6188551038    -0.4960814096    -0.4380926009
| 12> C      6.8058591979    -1.0660847322     0.7237944603
| 13> C      6.3053678576    -2.4896453174     0.4696021337
| 14> C      5.2349825547    -2.5650521085    -0.6115759896
| 15> O      4.0864482530    -1.8322132040    -0.1692288724
| 16> C      3.1866922222    -1.4863559396    -1.0840235450
| 17> O      3.2867893726    -1.7776422387    -2.2605205577
| 18> C      2.0585169498    -0.7101025242    -0.5186499720
| 19> C      1.0336564257    -0.3067428207    -1.3735863075
| 20> C     -0.0339616429     0.4205768376    -0.8870248048
| 21> C     -0.0879146893     0.7609247150     0.4630602005
| 22> C      0.9475562686     0.3766780618     1.3110766840
| 23> C      2.0090806797    -0.3639778832     0.8303856065
| 24> C     -1.1931846547     1.6086494474     1.0018275259
| 25> O     -0.8928957274     2.6683080083     1.5825414866
| 26> C     -2.5489333472     1.1680192595     0.8264841579
| 27> C     -2.8787833009    -0.1045077026     0.3215342582
| 28> C     -4.1709837266    -0.5103951061     0.1574675157
| 29> C     -5.2619195371     0.3348955625     0.4886850133
| 30> C     -4.9396211680     1.5980363877     1.0095341493
| 31> C     -3.6330742548     2.0081736830     1.1974608789
| 32> O     -3.4353962267     3.2289669176     1.7246372114
| 33> N     -6.5462980513    -0.0671772643     0.3356966406
| 34> C     -6.8747003601    -1.3879606687    -0.1637284435
| 35> C     -6.8288490751    -1.4886555596    -1.6895725671
| 36> C     -7.6500004857     0.8475215070     0.5567418351
| 37> C     -7.8223941138     1.8677585424    -0.5698132256
| 38> H      6.6657965834     2.0932234913    -0.7131740880
| 39> H      6.7099902987     1.7823453608     1.0231894898
| 40> H      7.8610434389     2.9023957308     0.3014203513
| 41> H      8.9249430535     0.6909492451     0.7961225154
| 42> H      8.9669866337     1.0995001775    -0.9187159303
| 43> H      6.9733412709    -0.3398587677    -1.3050172515
| 44> H      8.3852607128    -1.2222126436    -0.7207932786
| 45> H      5.9467017590    -0.4255613677     0.9250808406
| 46> H      7.4332172560    -1.0778257918     1.6176467168
| 47> H      7.1356194795    -3.1285816306     0.1663053172
| 48> H      5.8821206607    -2.8892108733     1.3926190888
| 49> H      4.9331825344    -3.6032554726    -0.7909824777
| 50> H      5.5784698648    -2.1435573668    -1.5612222092
| 51> H      1.0964468154    -0.5743690590    -2.4176791515
| 52> H     -0.8203046728     0.7423889192    -1.5529416438
| 53> H      0.9069160803     0.6626043843     2.3517172387
| 54> H      2.8049538216    -0.6707437953     1.4899533759
| 55> H     -2.0793754974    -0.7838176231     0.0678212366
| 56> H     -4.3423297371    -1.4958848470    -0.2382537232
| 57> H     -5.6953193920     2.3050506245     1.3046097497
| 58> H     -2.4613845461     3.3616561712     1.8255940964
| 59> H     -6.1945755283    -2.1183236189     0.2799988013
| 60> H     -7.8810588841    -1.6350925573     0.1806745711
| 61> H     -7.5976849197    -0.8657332730    -2.1380936893
| 62> H     -5.8619186810    -1.1670326889    -2.0676145949
| 63> H     -6.9995669854    -2.5179768459    -1.9936042312
| 64> H     -8.5627516880     0.2559008525     0.6429499472
| 65> H     -7.5057434634     1.3656916726     1.5085560953
| 66> H     -8.6352723437     2.5464015736    -0.3254439375
| 67> H     -6.9139535531     2.4476514206    -0.7084983992
| 68> H     -8.0568251605     1.3704153873    -1.5066866024
| 69> *
| 70> 
| 71>                          ****END OF INPUT****
================================================================================

                       *****************************
                       * Geometry Optimization Run *
                       *****************************

Geometry optimization settings:
Update method            Update   .... BFGS
Choice of coordinates    CoordSys .... (2022) Redundant Internals
Initial Hessian          InHess   .... Almloef's Model
Max. no of cycles        MaxIter  .... 180

Convergence Tolerances:
Energy Change            TolE     ....  5.0000e-06 Eh
Max. Gradient            TolMAXG  ....  3.0000e-04 Eh/bohr
RMS Gradient             TolRMSG  ....  1.0000e-04 Eh/bohr
Max. Displacement        TolMAXD  ....  4.0000e-03 bohr
RMS Displacement         TolRMSD  ....  2.0000e-03 bohr
Strict Convergence                .... False

------------------------------------------------------------------------------
                        ORCA OPTIMIZATION COORDINATE SETUP
------------------------------------------------------------------------------

The optimization will be done in redundant internal coordinates (2022)
Making redundant internal coordinates   ...  (2022 redundants) done
Evaluating the initial hessian          ...  (Almloef) done
Evaluating the coordinates              ...  done
Calculating the B-matrix                .... done
Calculating the G-matrix                .... done
The number of degrees of freedom        ....  293

    -----------------------------------------------------------------
                    Redundant Internal Coordinates


    -----------------------------------------------------------------
         Definition                    Initial Value    Approx d2E/dq
    -----------------------------------------------------------------
      1. B(C   1,C   0)                  1.5251         0.380310   
      2. B(C   2,C   1)                  1.5300         0.373522   
      3. B(C   3,C   2)                  1.5283         0.375849   
      4. B(C   4,C   3)                  1.5302         0.373247   
      5. B(C   5,C   4)                  1.5233         0.382923   
      6. B(O   6,C   5)                  1.4324         0.478830   
      7. B(C   7,O   6)                  1.3289         0.700366   
      8. B(O   8,C   7)                  1.2161         1.059858   
      9. B(C   9,C   7)                  1.4816         0.446348   
     10. B(C  10,C   9)                  1.3943         0.615100   
     11. B(C  11,C  10)                  1.3804         0.647190   
     12. B(C  12,C  11)                  1.3934         0.617111   
     13. B(C  13,C  12)                  1.3925         0.619149   
     14. B(C  14,C  13)                  1.3807         0.646394   
     15. B(C  14,C   9)                  1.3936         0.616570   
     16. B(C  15,C  12)                  1.4935         0.427187   
     17. B(O  16,C  15)                  1.2451         0.952909   
     18. B(C  17,C  15)                  1.4363         0.527074   
     19. B(C  18,C  17)                  1.4082         0.584333   
     20. B(C  19,C  18)                  1.3643         0.686539   
     21. B(C  20,C  19)                  1.4193         0.561074   
     22. B(C  21,C  20)                  1.4038         0.593888   
     23. B(C  22,C  21)                  1.3822         0.642859   
     24. B(C  22,C  17)                  1.4209         0.557831   
     25. B(O  23,C  22)                  1.3444         0.661724   
     26. B(N  24,C  20)                  1.3545         0.637526   
     27. B(C  25,N  24)                  1.4497         0.449331   
     28. B(C  26,C  25)                  1.5299         0.373780   
     29. B(C  27,N  24)                  1.4504         0.448221   
     30. B(C  28,C  27)                  1.5296         0.374100   
     31. B(H  29,C   0)                  1.0886         0.361996   
     32. B(H  30,C   0)                  1.0869         0.364284   
     33. B(H  31,C   0)                  1.0879         0.362937   
     34. B(H  32,C   1)                  1.0925         0.356834   
     35. B(H  33,C   1)                  1.0928         0.356445   
     36. B(H  34,C   2)                  1.0921         0.357351   
     37. B(H  35,C   2)                  1.0930         0.356204   
     38. B(H  36,C   3)                  1.0904         0.359592   
     39. B(H  37,C   3)                  1.0921         0.357329   
     40. B(H  38,C   4)                  1.0907         0.359224   
     41. B(H  39,C   4)                  1.0912         0.358496   
     42. B(H  40,C   5)                  1.0960         0.352297   
     43. B(H  41,C   5)                  1.0943         0.354470   
     44. B(H  42,C  10)                  1.0797         0.374022   
     45. B(H  43,C  11)                  1.0795         0.374247   
     46. B(H  44,C  13)                  1.0800         0.373614   
     47. B(H  45,H  30)                  4.6352         0.010000   
     48. B(H  45,C  14)                  1.0782         0.376032   
     49. B(H  46,C  18)                  1.0793         0.374539   
     50. B(H  47,C  19)                  1.0757         0.379514   
     51. B(H  48,C  21)                  1.0761         0.378948   
     52. B(H  49,O  16)                  1.7320         0.030495   
     53. B(H  49,O  23)                  0.9882         0.468823   
     54. B(H  50,C  25)                  1.0922         0.357206   
     55. B(H  51,C  25)                  1.0920         0.357475   
     56. B(H  52,C  26)                  1.0864         0.364865   
     57. B(H  53,C  26)                  1.0869         0.364249   
     58. B(H  54,C  26)                  1.0868         0.364390   
     59. B(H  55,C  27)                  1.0911         0.358610   
     60. B(H  56,C  27)                  1.0933         0.355787   
     61. B(H  57,C  28)                  1.0868         0.364414   
     62. B(H  58,C  28)                  1.0866         0.364580   
     63. B(H  59,C  28)                  1.0863         0.365033   
     64. A(C   1,C   0,H  29)          110.5061         0.325553   
     65. A(H  30,C   0,H  31)          108.1262         0.291728   
     66. A(C   1,C   0,H  30)          111.1251         0.325891   
     67. A(C   1,C   0,H  31)          110.2669         0.325693   
     68. A(H  29,C   0,H  31)          108.3171         0.291439   
     69. A(H  29,C   0,H  30)          108.4106         0.291608   
     70. A(C   0,C   1,C   2)          113.2354         0.364454   
     71. A(C   2,C   1,H  33)          108.4656         0.323768   
     72. A(C   0,C   1,H  32)          109.3542         0.324786   
     73. A(C   2,C   1,H  32)          109.2770         0.323827   
     74. A(H  32,C   1,H  33)          107.5929         0.289959   
     75. A(C   0,C   1,H  33)          108.7582         0.324727   
     76. A(C   3,C   2,H  35)          108.7758         0.324063   
     77. A(C   1,C   2,C   3)          112.9328         0.363720   
     78. A(C   3,C   2,H  34)          110.0239         0.324234   
     79. A(C   1,C   2,H  34)          108.6853         0.323903   
     80. A(H  34,C   2,H  35)          107.7094         0.289994   
     81. A(C   1,C   2,H  35)          108.5721         0.323733   
     82. A(C   2,C   3,H  36)          109.9009         0.324567   
     83. A(H  36,C   3,H  37)          107.9301         0.290423   
     84. A(C   4,C   3,H  36)          108.6286         0.324197   
     85. A(C   4,C   3,H  37)          108.2908         0.323861   
     86. A(C   2,C   3,C   4)          113.2443         0.363674   
     87. A(C   2,C   3,H  37)          108.7025         0.324231   
     88. A(C   3,C   4,H  38)          110.0111         0.324142   
     89. A(C   3,C   4,H  39)          109.0861         0.324034   
     90. A(C   3,C   4,C   5)          113.1900         0.364836   
     91. A(H  38,C   4,H  39)          108.4195         0.290524   
     92. A(C   5,C   4,H  38)          107.9709         0.325508   
     93. A(C   5,C   4,H  39)          108.0408         0.325400   
     94. A(O   6,C   5,H  41)          108.8210         0.334991   
     95. A(C   4,C   5,O   6)          108.5971         0.378433   
     96. A(C   4,C   5,H  41)          112.1060         0.324796   
     97. A(H  40,C   5,H  41)          108.0143         0.289126   
     98. A(O   6,C   5,H  40)          108.3244         0.334649   
     99. A(C   4,C   5,H  40)          110.8906         0.324468   
    100. A(C   5,O   6,C   7)          117.6095         0.418086   
    101. A(O   6,C   7,O   8)          123.2210         0.482922   
    102. A(O   8,C   7,C   9)          123.8718         0.447687   
    103. A(O   6,C   7,C   9)          112.9070         0.415582   
    104. A(C  10,C   9,C  14)          119.7123         0.433015   
    105. A(C   7,C   9,C  14)          121.7724         0.408930   
    106. A(C   7,C   9,C  10)          118.5102         0.408757   
    107. A(C  11,C  10,H  42)          121.0938         0.357783   
    108. A(C   9,C  10,C  11)          120.3176         0.436809   
    109. A(C   9,C  10,H  42)          118.5886         0.354707   
    110. A(C  10,C  11,C  12)          120.0113         0.437066   
    111. A(C  10,C  11,H  43)          120.1990         0.357819   
    112. A(C  12,C  11,H  43)          119.7809         0.354939   
    113. A(C  13,C  12,C  15)          119.1605         0.406067   
    114. A(C  11,C  12,C  13)          119.5963         0.433594   
    115. A(C  11,C  12,C  15)          121.1204         0.405831   
    116. A(C  14,C  13,H  44)          120.4249         0.357642   
    117. A(C  12,C  13,H  44)          119.0637         0.355036   
    118. A(C  12,C  13,C  14)          120.5110         0.437229   
    119. A(C  13,C  14,H  45)          120.4733         0.358034   
    120. A(C   9,C  14,H  45)          119.6901         0.355173   
    121. A(C   9,C  14,C  13)          119.8349         0.436900   
    122. A(C  12,C  15,C  17)          118.7102         0.394721   
    123. A(O  16,C  15,C  17)          123.0711         0.452580   
    124. A(C  12,C  15,O  16)          118.2187         0.435694   
    125. A(C  18,C  17,C  22)          116.6936         0.421424   
    126. A(C  15,C  17,C  22)          120.4610         0.413754   
    127. A(C  15,C  17,C  18)          122.8259         0.417184   
    128. A(C  17,C  18,C  19)          122.2620         0.437417   
    129. A(C  19,C  18,H  46)          119.0777         0.361483   
    130. A(C  17,C  18,H  46)          118.6561         0.351721   
    131. A(C  18,C  19,C  20)          121.5177         0.434228   
    132. A(C  20,C  19,H  47)          120.5999         0.350095   
    133. A(C  18,C  19,H  47)          117.8816         0.362298   
    134. A(C  19,C  20,C  21)          116.4879         0.423084   
    135. A(C  21,C  20,N  24)          121.7829         0.430055   
    136. A(C  19,C  20,N  24)          121.7158         0.425696   
    137. A(C  20,C  21,C  22)          122.3063         0.433533   
    138. A(C  22,C  21,H  48)          115.5669         0.358171   
    139. A(C  20,C  21,H  48)          122.1191         0.353386   
    140. A(C  17,C  22,O  23)          121.8121         0.428101   
    141. A(C  17,C  22,C  21)          120.6828         0.428684   
    142. A(C  21,C  22,O  23)          117.4999         0.439167   
    143. A(C  22,O  23,H  49)          107.8743         0.367684   
    144. A(C  25,N  24,C  27)          117.0441         0.382215   
    145. A(C  20,N  24,C  27)          121.1409         0.406377   
    146. A(C  20,N  24,C  25)          121.6105         0.406554   
    147. A(H  50,C  25,H  51)          107.1221         0.290138   
    148. A(C  26,C  25,H  51)          109.1043         0.323959   
    149. A(N  24,C  25,H  51)          107.8360         0.331940   
    150. A(C  26,C  25,H  50)          110.0310         0.323919   
    151. A(N  24,C  25,H  50)          109.1602         0.331898   
    152. A(N  24,C  25,C  26)          113.3762         0.372741   
    153. A(H  53,C  26,H  54)          108.8271         0.291907   
    154. A(H  52,C  26,H  54)          108.4451         0.291984   
    155. A(C  25,C  26,H  54)          109.6732         0.324980   
    156. A(H  52,C  26,H  53)          108.4400         0.291966   
    157. A(C  25,C  26,H  53)          110.7382         0.324959   
    158. A(C  25,C  26,H  52)          110.6594         0.325049   
    159. A(H  55,C  27,H  56)          107.3722         0.290101   
    160. A(C  28,C  27,H  56)          109.8733         0.323753   
    161. A(N  24,C  27,H  56)          109.3401         0.331544   
    162. A(C  28,C  27,H  55)          108.9994         0.324173   
    163. A(N  24,C  27,H  55)          107.8577         0.331978   
    164. A(N  24,C  27,C  28)          113.2133         0.372638   
    165. A(H  58,C  28,H  59)          108.3411         0.292029   
    166. A(H  57,C  28,H  59)          108.5669         0.292008   
    167. A(C  27,C  28,H  59)          110.7408         0.325120   
    168. A(H  57,C  28,H  58)          108.7096         0.291951   
    169. A(C  27,C  28,H  58)          110.8376         0.325053   
    170. A(C  27,C  28,H  57)          109.5849         0.325029   
    171. D(H  32,C   1,C   0,H  30)    -57.1098         0.011526   
    172. D(C   2,C   1,C   0,H  29)    -55.3932         0.011526   
    173. D(C   2,C   1,C   0,H  31)   -175.1148         0.011526   
    174. D(H  32,C   1,C   0,H  31)     62.7716         0.011526   
    175. D(H  32,C   1,C   0,H  29)   -177.5068         0.011526   
    176. D(C   2,C   1,C   0,H  30)     65.0039         0.011526   
    177. D(C   3,C   2,C   1,H  32)     55.5298         0.011141   
    178. D(H  34,C   2,C   1,H  33)    -65.0628         0.011141   
    179. D(H  34,C   2,C   1,H  32)    177.9126         0.011141   
    180. D(C   3,C   2,C   1,C   0)    -66.6270         0.011141   
    181. D(H  34,C   2,C   1,C   0)     55.7558         0.011141   
    182. D(C   3,C   2,C   1,H  33)    172.5545         0.011141   
    183. D(C   4,C   3,C   2,H  35)    -50.0415         0.011272   
    184. D(C   4,C   3,C   2,C   1)   -170.6455         0.011272   
    185. D(C   4,C   3,C   2,H  34)     67.7240         0.011272   
    186. D(H  36,C   3,C   2,H  35)   -171.7246         0.011272   
    187. D(H  36,C   3,C   2,H  34)    -53.9591         0.011272   
    188. D(H  36,C   3,C   2,C   1)     67.6713         0.011272   
    189. D(H  38,C   4,C   3,H  37)    -68.7477         0.011125   
    190. D(H  38,C   4,C   3,H  36)    174.2781         0.011125   
    191. D(H  38,C   4,C   3,C   2)     51.8844         0.011125   
    192. D(C   5,C   4,C   3,H  37)    170.3726         0.011125   
    193. D(C   5,C   4,C   3,H  36)     53.3985         0.011125   
    194. D(C   5,C   4,C   3,C   2)    -68.9952         0.011125   
    195. D(H  40,C   5,C   4,H  39)    -61.3702         0.011677   
    196. D(H  40,C   5,C   4,C   3)    177.7222         0.011677   
    197. D(O   6,C   5,C   4,H  39)     57.5430         0.011677   
    198. D(O   6,C   5,C   4,H  38)    174.6078         0.011677   
    199. D(O   6,C   5,C   4,C   3)    -63.3646         0.011677   
    200. D(H  40,C   5,C   4,H  38)     55.6947         0.011677   
    201. D(C   7,O   6,C   5,C   4)    163.1196         0.018085   
    202. D(C   7,O   6,C   5,H  41)     40.8322         0.018085   
    203. D(C   7,O   6,C   5,H  40)    -76.3652         0.018085   
    204. D(C   9,C   7,O   6,C   5)   -178.8200         0.036736   
    205. D(O   8,C   7,O   6,C   5)      1.0399         0.036736   
    206. D(C  14,C   9,C   7,O   8)   -177.9205         0.013585   
    207. D(C  14,C   9,C   7,O   6)      1.9383         0.013585   
    208. D(C  10,C   9,C   7,O   8)      1.2540         0.013585   
    209. D(C  10,C   9,C   7,O   6)   -178.8871         0.013585   
    210. D(H  42,C  10,C   9,C  14)    179.2488         0.026156   
    211. D(H  42,C  10,C   9,C   7)      0.0568         0.026156   
    212. D(C  11,C  10,C   9,C  14)     -0.6681         0.026156   
    213. D(C  11,C  10,C   9,C   7)   -179.8601         0.026156   
    214. D(H  43,C  11,C  10,H  42)     -0.6737         0.029146   
    215. D(H  43,C  11,C  10,C   9)    179.2411         0.029146   
    216. D(C  12,C  11,C  10,H  42)   -179.5927         0.029146   
    217. D(C  12,C  11,C  10,C   9)      0.3221         0.029146   
    218. D(C  15,C  12,C  11,H  43)     -2.2276         0.026337   
    219. D(C  15,C  12,C  11,C  10)    176.6960         0.026337   
    220. D(C  13,C  12,C  11,H  43)   -178.1654         0.026337   
    221. D(C  13,C  12,C  11,C  10)      0.7581         0.026337   
    222. D(H  44,C  13,C  12,C  15)      2.7294         0.026522   
    223. D(H  44,C  13,C  12,C  11)    178.7473         0.026522   
    224. D(C  14,C  13,C  12,C  15)   -177.5256         0.026522   
    225. D(C  14,C  13,C  12,C  11)     -1.5077         0.026522   
    226. D(H  45,C  14,C  13,C  12)   -179.3013         0.029069   
    227. D(C   9,C  14,C  13,H  44)   -179.0944         0.029069   
    228. D(C   9,C  14,C  13,C  12)      1.1641         0.029069   
    229. D(H  45,C  14,C   9,C  10)   -179.6131         0.026288   
    230. D(H  45,C  14,C   9,C   7)     -0.4482         0.026288   
    231. D(C  13,C  14,C   9,C  10)     -0.0748         0.026288   
    232. D(H  45,C  14,C  13,H  44)      0.4402         0.029069   
    233. D(C  13,C  14,C   9,C   7)    179.0900         0.026288   
    234. D(C  17,C  15,C  12,C  13)   -126.6831         0.012474   
    235. D(C  17,C  15,C  12,C  11)     57.3617         0.012474   
    236. D(O  16,C  15,C  12,C  13)     53.3860         0.012474   
    237. D(O  16,C  15,C  12,C  11)   -122.5692         0.012474   
    238. D(C  22,C  17,C  15,O  16)      6.5485         0.018957   
    239. D(C  22,C  17,C  15,C  12)   -173.3788         0.018957   
    240. D(C  18,C  17,C  15,O  16)   -171.7937         0.018957   
    241. D(C  18,C  17,C  15,C  12)      8.2790         0.018957   
    242. D(H  46,C  18,C  17,C  22)   -177.5316         0.023475   
    243. D(H  46,C  18,C  17,C  15)      0.8690         0.023475   
    244. D(C  19,C  18,C  17,C  22)      1.7163         0.023475   
    245. D(C  19,C  18,C  17,C  15)   -179.8831         0.023475   
    246. D(H  47,C  19,C  18,H  46)     -1.0287         0.033090   
    247. D(H  47,C  19,C  18,C  17)    179.7264         0.033090   
    248. D(C  20,C  19,C  18,H  46)    179.2837         0.033090   
    249. D(C  20,C  19,C  18,C  17)      0.0389         0.033090   
    250. D(N  24,C  20,C  19,H  47)      0.7624         0.021567   
    251. D(N  24,C  20,C  19,C  18)   -179.5585         0.021567   
    252. D(C  21,C  20,C  19,H  47)    179.4515         0.021567   
    253. D(C  21,C  20,C  19,C  18)     -0.8694         0.021567   
    254. D(H  48,C  21,C  20,N  24)     -0.3832         0.024288   
    255. D(H  48,C  21,C  20,C  19)   -179.0713         0.024288   
    256. D(C  22,C  21,C  20,N  24)    178.5581         0.024288   
    257. D(C  22,C  21,C  20,C  19)     -0.1300         0.024288   
    258. D(O  23,C  22,C  21,C  20)   -178.8626         0.028731   
    259. D(C  17,C  22,C  21,H  48)   -179.0463         0.028731   
    260. D(C  17,C  22,C  21,C  20)      1.9477         0.028731   
    261. D(O  23,C  22,C  17,C  18)    178.1718         0.021309   
    262. D(O  23,C  22,C  17,C  15)     -0.2689         0.021309   
    263. D(C  21,C  22,C  17,C  18)     -2.6740         0.021309   
    264. D(O  23,C  22,C  21,H  48)      0.1434         0.028731   
    265. D(C  21,C  22,C  17,C  15)    178.8852         0.021309   
    266. D(H  49,O  23,C  22,C  21)    178.0216         0.032458   
    267. D(H  49,O  23,C  22,C  17)     -2.7985         0.032458   
    268. D(C  27,N  24,C  20,C  21)      7.2920         0.033060   
    269. D(C  27,N  24,C  20,C  19)   -174.0882         0.033060   
    270. D(C  25,N  24,C  20,C  21)   -178.0587         0.033060   
    271. D(C  25,N  24,C  20,C  19)      0.5610         0.033060   
    272. D(H  51,C  25,N  24,C  20)    156.7531         0.017223   
    273. D(H  50,C  25,N  24,C  27)   -144.4417         0.017223   
    274. D(H  50,C  25,N  24,C  20)     40.6997         0.017223   
    275. D(C  26,C  25,N  24,C  27)     92.5180         0.017223   
    276. D(C  26,C  25,N  24,C  20)    -82.3406         0.017223   
    277. D(H  53,C  26,C  25,H  51)    175.2370         0.011155   
    278. D(H  53,C  26,C  25,H  50)    -67.5107         0.011155   
    279. D(H  53,C  26,C  25,N  24)     55.0485         0.011155   
    280. D(H  52,C  26,C  25,H  51)     54.9563         0.011155   
    281. D(H  52,C  26,C  25,H  50)    172.2085         0.011155   
    282. D(H  52,C  26,C  25,N  24)    -65.2322         0.011155   
    283. D(H  56,C  27,N  24,C  20)    -48.4741         0.017137   
    284. D(H  55,C  27,N  24,C  25)     20.1843         0.017137   
    285. D(H  55,C  27,N  24,C  20)   -164.9314         0.017137   
    286. D(C  28,C  27,N  24,C  25)   -100.5021         0.017137   
    287. D(C  28,C  27,N  24,C  20)     74.3822         0.017137   
    288. D(H  58,C  28,C  27,H  56)     64.8848         0.011173   
    289. D(H  58,C  28,C  27,H  55)   -177.7128         0.011173   
    290. D(H  58,C  28,C  27,N  24)    -57.6758         0.011173   
    291. D(H  57,C  28,C  27,H  56)    -55.0963         0.011173   
    292. D(H  57,C  28,C  27,H  55)     62.3061         0.011173   
    293. D(H  57,C  28,C  27,N  24)   -177.6569         0.011173   
    -----------------------------------------------------------------

Number of atoms                         .... 60
Number of degrees of freedom            .... 293


         *************************************************************
         *                GEOMETRY OPTIMIZATION CYCLE   1            *
         *************************************************************
---------------------------------
CARTESIAN COORDINATES (ANGSTROEM)
---------------------------------
  C      7.323208    1.969707    0.145627
  C      8.304973    0.827242   -0.093019
  C      7.618855   -0.496081   -0.438093
  C      6.805859   -1.066085    0.723794
  C      6.305368   -2.489645    0.469602
  C      5.234983   -2.565052   -0.611576
  O      4.086448   -1.832213   -0.169229
  C      3.186692   -1.486356   -1.084024
  O      3.286789   -1.777642   -2.260521
  C      2.058517   -0.710103   -0.518650
  C      1.033656   -0.306743   -1.373586
  C     -0.033962    0.420577   -0.887025
  C     -0.087915    0.760925    0.463060
  C      0.947556    0.376678    1.311077
  C      2.009081   -0.363978    0.830386
  C     -1.193185    1.608649    1.001828
  O     -0.892896    2.668308    1.582541
  C     -2.548933    1.168019    0.826484
  C     -2.878783   -0.104508    0.321534
  C     -4.170984   -0.510395    0.157468
  C     -5.261920    0.334896    0.488685
  C     -4.939621    1.598036    1.009534
  C     -3.633074    2.008174    1.197461
  O     -3.435396    3.228967    1.724637
  N     -6.546298   -0.067177    0.335697
  C     -6.874700   -1.387961   -0.163728
  C     -6.828849   -1.488656   -1.689573
  C     -7.650000    0.847522    0.556742
  C     -7.822394    1.867759   -0.569813
  H      6.665797    2.093223   -0.713174
  H      6.709990    1.782345    1.023189
  H      7.861043    2.902396    0.301420
  H      8.924943    0.690949    0.796123
  H      8.966987    1.099500   -0.918716
  H      6.973341   -0.339859   -1.305017
  H      8.385261   -1.222213   -0.720793
  H      5.946702   -0.425561    0.925081
  H      7.433217   -1.077826    1.617647
  H      7.135619   -3.128582    0.166305
  H      5.882121   -2.889211    1.392619
  H      4.933183   -3.603255   -0.790982
  H      5.578470   -2.143557   -1.561222
  H      1.096447   -0.574369   -2.417679
  H     -0.820305    0.742389   -1.552942
  H      0.906916    0.662604    2.351717
  H      2.804954   -0.670744    1.489953
  H     -2.079375   -0.783818    0.067821
  H     -4.342330   -1.495885   -0.238254
  H     -5.695319    2.305051    1.304610
  H     -2.461385    3.361656    1.825594
  H     -6.194576   -2.118324    0.279999
  H     -7.881059   -1.635093    0.180675
  H     -7.597685   -0.865733   -2.138094
  H     -5.861919   -1.167033   -2.067615
  H     -6.999567   -2.517977   -1.993604
  H     -8.562752    0.255901    0.642950
  H     -7.505743    1.365692    1.508556
  H     -8.635272    2.546402   -0.325444
  H     -6.913954    2.447651   -0.708498
  H     -8.056825    1.370415   -1.506687

----------------------------
CARTESIAN COORDINATES (A.U.)
----------------------------
  NO LB      ZA    FRAG     MASS         X           Y           Z
   0 C     6.0000    0    12.011   13.838857    3.722206    0.275196
   1 C     6.0000    0    12.011   15.694124    1.563261   -0.175781
   2 C     6.0000    0    12.011   14.397550   -0.937458   -0.827875
   3 C     6.0000    0    12.011   12.861210   -2.014608    1.367773
   4 C     6.0000    0    12.011   11.915418   -4.704748    0.887419
   5 C     6.0000    0    12.011    9.892683   -4.847246   -1.155711
   6 O     8.0000    0    15.999    7.722268   -3.462381   -0.319796
   7 C     6.0000    0    12.011    6.021976   -2.808806   -2.048508
   8 O     8.0000    0    15.999    6.211132   -3.359257   -4.271765
   9 C     6.0000    0    12.011    3.890033   -1.341899   -0.980106
  10 C     6.0000    0    12.011    1.953328   -0.579660   -2.595702
  11 C     6.0000    0    12.011   -0.064178    0.794775   -1.676234
  12 C     6.0000    0    12.011   -0.166135    1.437939    0.875057
  13 C     6.0000    0    12.011    1.790622    0.711818    2.477576
  14 C     6.0000    0    12.011    3.796612   -0.687819    1.569201
  15 C     6.0000    0    12.011   -2.254792    3.039907    1.893180
  16 O     8.0000    0    15.999   -1.687328    5.042371    2.990570
  17 C     6.0000    0    12.011   -4.816786    2.207237    1.561829
  18 C     6.0000    0    12.011   -5.440112   -0.197491    0.607612
  19 C     6.0000    0    12.011   -7.882017   -0.964507    0.297570
  20 C     6.0000    0    12.011   -9.943587    0.632861    0.923481
  21 C     6.0000    0    12.011   -9.334531    3.019851    1.907743
  22 C     6.0000    0    12.011   -6.865515    3.794898    2.262873
  23 O     8.0000    0    15.999   -6.491958    6.101863    3.259092
  24 N     7.0000    0    14.007  -12.370711   -0.126947    0.634375
  25 C     6.0000    0    12.011  -12.991301   -2.622866   -0.309402
  26 C     6.0000    0    12.011  -12.904655   -2.813151   -3.192829
  27 C     6.0000    0    12.011  -14.456406    1.601584    1.052090
  28 C     6.0000    0    12.011  -14.782183    3.529552   -1.076791
  29 H     1.0000    0     1.008   12.596530    3.955619   -1.347704
  30 H     1.0000    0     1.008   12.680044    3.368145    1.933548
  31 H     1.0000    0     1.008   14.855219    5.484733    0.569602
  32 H     1.0000    0     1.008   16.865698    1.305705    1.504454
  33 H     1.0000    0     1.008   16.945149    2.077754   -1.736122
  34 H     1.0000    0     1.008   13.177705   -0.642240   -2.466125
  35 H     1.0000    0     1.008   15.845846   -2.309647   -1.362102
  36 H     1.0000    0     1.008   11.237638   -0.804194    1.748149
  37 H     1.0000    0     1.008   14.046745   -2.036796    3.056909
  38 H     1.0000    0     1.008   13.484367   -5.912162    0.314272
  39 H     1.0000    0     1.008   11.115597   -5.459817    2.631669
  40 H     1.0000    0     1.008    9.322364   -6.809166   -1.494740
  41 H     1.0000    0     1.008   10.541780   -4.050736   -2.950282
  42 H     1.0000    0     1.008    2.071984   -1.085400   -4.568751
  43 H     1.0000    0     1.008   -1.550151    1.402912   -2.934634
  44 H     1.0000    0     1.008    1.713823    1.252141    4.444102
  45 H     1.0000    0     1.008    5.300595   -1.267522    2.815604
  46 H     1.0000    0     1.008   -3.929450   -1.481201    0.128164
  47 H     1.0000    0     1.008   -8.205814   -2.826813   -0.450234
  48 H     1.0000    0     1.008  -10.762594    4.355914    2.465355
  49 H     1.0000    0     1.008   -4.651343    6.352610    3.449873
  50 H     1.0000    0     1.008  -11.706051   -4.003052    0.529121
  51 H     1.0000    0     1.008  -14.893043   -3.089877    0.341425
  52 H     1.0000    0     1.008  -14.357544   -1.635999   -4.040412
  53 H     1.0000    0     1.008  -11.077421   -2.205372   -3.907225
  54 H     1.0000    0     1.008  -13.227265   -4.758287   -3.767366
  55 H     1.0000    0     1.008  -16.181256    0.483583    1.214999
  56 H     1.0000    0     1.008  -14.183800    2.580783    2.850758
  57 H     1.0000    0     1.008  -16.318300    4.812002   -0.615000
  58 H     1.0000    0     1.008  -13.065479    4.625391   -1.338868
  59 H     1.0000    0     1.008  -15.225193    2.589710   -2.847225

--------------------------------
INTERNAL COORDINATES (ANGSTROEM)
--------------------------------
 C      0   0   0     0.000000000000     0.00000000     0.00000000
 C      1   0   0     1.525135878861     0.00000000     0.00000000
 C      2   1   0     1.530038568513   113.23539442     0.00000000
 C      3   2   1     1.528348021155   112.93281024   293.37300123
 C      4   3   2     1.530238563216   113.24431549   189.35446507
 C      5   4   3     1.523271812616   113.18998274   291.00475845
 O      6   5   4     1.432429710047   108.59707458   296.63541162
 C      7   6   5     1.328919657209   117.60946334   163.11964116
 O      8   7   6     1.216146524253   123.22103230     1.03990444
 C      8   7   6     1.481551918504   112.90703625   181.17998490
 C     10   8   7     1.394257609635   118.51019722   181.11288028
 C     11  10   8     1.380414547033   120.31762391   180.13992275
 C     12  11  10     1.393368985733   120.01131472     0.32207083
 C     13  12  11     1.392471741702   119.59628718     0.75814893
 C     14  13  12     1.380749512480   120.51097483   358.49227006
 C     13  12  11     1.493495614073   121.12041227   176.69601331
 O     16  13  12     1.245101766804   118.21868733   237.43076294
 C     16  13  12     1.436298985729   118.71021700    57.36166382
 C     18  16  13     1.408225927341   122.82594950     8.27895400
 C     19  18  16     1.364347617176   122.26204811   180.11685860
 C     20  19  18     1.419282314330   121.51769278     0.03885345
 C     21  20  19     1.403810815418   116.48786782   359.13064212
 C     22  21  20     1.382242342387   122.30627667   359.86997299
 O     23  22  21     1.344368851910   117.49991637   181.13736950
 N     21  20  19     1.354509567324   121.71578021   180.44154082
 C     25  21  20     1.449738697970   121.61051707     0.56098265
 C     26  25  21     1.529850349189   113.37623475   277.65941703
 C     25  21  20     1.450411625688   121.14085641   185.91176744
 C     28  25  21     1.529617428052   113.21325188    74.38220885
 H      1   2   3     1.088570562962   110.50612088   304.60684003
 H      1   2   3     1.086855574019   111.12509470    65.00387902
 H      1   2   3     1.087863797829   110.26688753   184.88524926
 H      2   1   3     1.092479774993   109.35422162   237.88633272
 H      2   1   3     1.092777340938   108.75816031   120.65284952
 H      3   2   1     1.092086064431   108.68533247    55.75578210
 H      3   2   1     1.092961023856   108.57209137   172.65281481
 H      4   3   2     1.090384286471   109.90091753    67.67134115
 H      4   3   2     1.092102486946   108.70250332   309.75295793
 H      5   4   3     1.090663250913   110.01108715    51.88440534
 H      5   4   3     1.091215433609   109.08614898   170.69054551
 H      6   5   4     1.095963578525   110.89059023   177.72224245
 H      6   5   4     1.094289400424   112.10597608    56.90467343
 H     11  10   8     1.079674165365   118.58855590     0.05681956
 H     12  11  10     1.079510821159   120.19903554   179.24112507
 H     14  13  12     1.079971412071   119.06367562   178.74725387
 H     15  14  13     1.078215667321   120.47333056   180.69867377
 H     19  18  16     1.079298430331   118.65609260     0.86895981
 H     20  19  18     1.075706643863   117.88164607   179.72642497
 H     22  21  20     1.076112701693   122.11908634   180.92866040
 H     24  23  22     0.988178872773   107.87429323   178.02157335
 H     26  25  21     1.092196728449   109.16018540    40.69969334
 H     26  25  21     1.091991339552   107.83603023   156.75305874
 H     27  26  25     1.086421616199   110.65942570   294.76776047
 H     27  26  25     1.086881517358   110.73818364    55.04848305
 H     27  26  25     1.086776043214   109.67322736   175.16981484
 H     28  25  21     1.091128587621   107.85772783   195.06862843
 H     28  25  21     1.093279833767   109.34013336   311.52590724
 H     29  28  25     1.086758358334   109.58488843   182.34311894
 H     29  28  25     1.086634059787   110.83760982   302.32424709
 H     29  28  25     1.086296393135   110.74076812    62.59986617

---------------------------
INTERNAL COORDINATES (A.U.)
---------------------------
 C      0   0   0     0.000000000000     0.00000000     0.00000000
 C      1   0   0     2.882089128064     0.00000000     0.00000000
 C      2   1   0     2.891353868826   113.23539442     0.00000000
 C      3   2   1     2.888159197304   112.93281024   293.37300123
 C      4   3   2     2.891731804043   113.24431549   189.35446507
 C      5   4   3     2.878566553366   113.18998274   291.00475845
 O      6   5   4     2.706899858081   108.59707458   296.63541162
 C      7   6   5     2.511294206110   117.60946334   163.11964116
 O      8   7   6     2.298183869559   123.22103230     1.03990444
 C      8   7   6     2.799727379157   112.90703625   181.17998490
 C     10   8   7     2.634765042345   118.51019722   181.11288028
 C     11  10   8     2.608605445173   120.31762391   180.13992275
 C     12  11  10     2.633085786535   120.01131472     0.32207083
 C     13  12  11     2.631390241040   119.59628718     0.75814893
 C     14  13  12     2.609238438132   120.51097483   358.49227006
 C     13  12  11     2.822297692811   121.12041227   176.69601331
 O     16  13  12     2.352901348122   118.21868733   237.43076294
 C     16  13  12     2.714211729456   118.71021700    57.36166382
 C     18  16  13     2.661161337361   122.82594950     8.27895400
 C     19  18  16     2.578243347931   122.26204811   180.11685860
 C     20  19  18     2.682054880802   121.51769278     0.03885345
 C     21  20  19     2.652817984976   116.48786782   359.13064212
 C     22  21  20     2.612059477821   122.30627667   359.86997299
 O     23  22  21     2.540488953085   117.49991637   181.13736950
 N     21  20  19     2.559652128018   121.71578021   180.44154082
 C     25  21  20     2.739609104911   121.61051707     0.56098265
 C     26  25  21     2.890998185851   113.37623475   277.65941703
 C     25  21  20     2.740880754005   121.14085641   185.91176744
 C     28  25  21     2.890558028691   113.21325188    74.38220885
 H      1   2   3     2.057100241446   110.50612088   304.60684003
 H      1   2   3     2.053859382022   111.12509470    65.00387902
 H      1   2   3     2.055764648904   110.26688753   184.88524926
 H      2   1   3     2.064487581584   109.35422162   237.88633272
 H      2   1   3     2.065049899728   108.75816031   120.65284952
 H      3   2   1     2.063743576447   108.68533247    55.75578210
 H      3   2   1     2.065397010139   108.57209137   172.65281481
 H      4   3   2     2.060527682160   109.90091753    67.67134115
 H      4   3   2     2.063774610502   108.70250332   309.75295793
 H      5   4   3     2.061054848558   110.01108715    51.88440534
 H      5   4   3     2.062098322630   109.08614898   170.69054551
 H      6   5   4     2.071071016165   110.89059023   177.72224245
 H      6   5   4     2.067907278055   112.10597608    56.90467343
 H     11  10   8     2.040288486410   118.58855590     0.05681956
 H     12  11  10     2.039979810595   120.19903554   179.24112507
 H     14  13  12     2.040850201278   119.06367562   178.74725387
 H     15  14  13     2.037532324539   120.47333056   180.69867377
 H     19  18  16     2.039578450097   118.65609260     0.86895981
 H     20  19  18     2.032790957340   117.88164607   179.72642497
 H     22  21  20     2.033558295435   122.11908634   180.92866040
 H     24  23  22     1.867387440868   107.87429323   178.02157335
 H     26  25  21     2.063952701132   109.16018540    40.69969334
 H     26  25  21     2.063564572367   107.83603023   156.75305874
 H     27  26  25     2.053039320588   110.65942570   294.76776047
 H     27  26  25     2.053908407828   110.73818364    55.04848305
 H     27  26  25     2.053709090580   109.67322736   175.16981484
 H     28  25  21     2.061934207495   107.85772783   195.06862843
 H     28  25  21     2.065999473558   109.34013336   311.52590724
 H     29  28  25     2.053675671001   109.58488843   182.34311894
 H     29  28  25     2.053440780788   110.83760982   302.32424709
 H     29  28  25     2.052802683292   110.74076812    62.59986617

---------------------
BASIS SET INFORMATION
---------------------
There are 4 groups of distinct atoms

 Group   1 Type C   : 7s4p1d contracted to 3s2p1d pattern {511/31/1}
 Group   2 Type O   : 7s4p1d contracted to 3s2p1d pattern {511/31/1}
 Group   3 Type N   : 7s4p1d contracted to 3s2p1d pattern {511/31/1}
 Group   4 Type H   : 4s1p contracted to 2s1p pattern {31/1}

Atom   0C    basis set group =>   1
Atom   1C    basis set group =>   1
Atom   2C    basis set group =>   1
Atom   3C    basis set group =>   1
Atom   4C    basis set group =>   1
Atom   5C    basis set group =>   1
Atom   6O    basis set group =>   2
Atom   7C    basis set group =>   1
Atom   8O    basis set group =>   2
Atom   9C    basis set group =>   1
Atom  10C    basis set group =>   1
Atom  11C    basis set group =>   1
Atom  12C    basis set group =>   1
Atom  13C    basis set group =>   1
Atom  14C    basis set group =>   1
Atom  15C    basis set group =>   1
Atom  16O    basis set group =>   2
Atom  17C    basis set group =>   1
Atom  18C    basis set group =>   1
Atom  19C    basis set group =>   1
Atom  20C    basis set group =>   1
Atom  21C    basis set group =>   1
Atom  22C    basis set group =>   1
Atom  23O    basis set group =>   2
Atom  24N    basis set group =>   3
Atom  25C    basis set group =>   1
Atom  26C    basis set group =>   1
Atom  27C    basis set group =>   1
Atom  28C    basis set group =>   1
Atom  29H    basis set group =>   4
Atom  30H    basis set group =>   4
Atom  31H    basis set group =>   4
Atom  32H    basis set group =>   4
Atom  33H    basis set group =>   4
Atom  34H    basis set group =>   4
Atom  35H    basis set group =>   4
Atom  36H    basis set group =>   4
Atom  37H    basis set group =>   4
Atom  38H    basis set group =>   4
Atom  39H    basis set group =>   4
Atom  40H    basis set group =>   4
Atom  41H    basis set group =>   4
Atom  42H    basis set group =>   4
Atom  43H    basis set group =>   4
Atom  44H    basis set group =>   4
Atom  45H    basis set group =>   4
Atom  46H    basis set group =>   4
Atom  47H    basis set group =>   4
Atom  48H    basis set group =>   4
Atom  49H    basis set group =>   4
Atom  50H    basis set group =>   4
Atom  51H    basis set group =>   4
Atom  52H    basis set group =>   4
Atom  53H    basis set group =>   4
Atom  54H    basis set group =>   4
Atom  55H    basis set group =>   4
Atom  56H    basis set group =>   4
Atom  57H    basis set group =>   4
Atom  58H    basis set group =>   4
Atom  59H    basis set group =>   4
---------------------------------
AUXILIARY/J BASIS SET INFORMATION
---------------------------------
There are 4 groups of distinct atoms

 Group   1 Type C   : 12s5p4d2f1g contracted to 6s4p3d1f1g pattern {711111/2111/211/2/1}
 Group   2 Type O   : 12s5p4d2f1g contracted to 6s4p3d1f1g pattern {711111/2111/211/2/1}
 Group   3 Type N   : 12s5p4d2f1g contracted to 6s4p3d1f1g pattern {711111/2111/211/2/1}
 Group   4 Type H   : 5s2p1d contracted to 3s1p1d pattern {311/2/1}

Atom   0C    basis set group =>   1
Atom   1C    basis set group =>   1
Atom   2C    basis set group =>   1
Atom   3C    basis set group =>   1
Atom   4C    basis set group =>   1
Atom   5C    basis set group =>   1
Atom   6O    basis set group =>   2
Atom   7C    basis set group =>   1
Atom   8O    basis set group =>   2
Atom   9C    basis set group =>   1
Atom  10C    basis set group =>   1
Atom  11C    basis set group =>   1
Atom  12C    basis set group =>   1
Atom  13C    basis set group =>   1
Atom  14C    basis set group =>   1
Atom  15C    basis set group =>   1
Atom  16O    basis set group =>   2
Atom  17C    basis set group =>   1
Atom  18C    basis set group =>   1
Atom  19C    basis set group =>   1
Atom  20C    basis set group =>   1
Atom  21C    basis set group =>   1
Atom  22C    basis set group =>   1
Atom  23O    basis set group =>   2
Atom  24N    basis set group =>   3
Atom  25C    basis set group =>   1
Atom  26C    basis set group =>   1
Atom  27C    basis set group =>   1
Atom  28C    basis set group =>   1
Atom  29H    basis set group =>   4
Atom  30H    basis set group =>   4
Atom  31H    basis set group =>   4
Atom  32H    basis set group =>   4
Atom  33H    basis set group =>   4
Atom  34H    basis set group =>   4
Atom  35H    basis set group =>   4
Atom  36H    basis set group =>   4
Atom  37H    basis set group =>   4
Atom  38H    basis set group =>   4
Atom  39H    basis set group =>   4
Atom  40H    basis set group =>   4
Atom  41H    basis set group =>   4
Atom  42H    basis set group =>   4
Atom  43H    basis set group =>   4
Atom  44H    basis set group =>   4
Atom  45H    basis set group =>   4
Atom  46H    basis set group =>   4
Atom  47H    basis set group =>   4
Atom  48H    basis set group =>   4
Atom  49H    basis set group =>   4
Atom  50H    basis set group =>   4
Atom  51H    basis set group =>   4
Atom  52H    basis set group =>   4
Atom  53H    basis set group =>   4
Atom  54H    basis set group =>   4
Atom  55H    basis set group =>   4
Atom  56H    basis set group =>   4
Atom  57H    basis set group =>   4
Atom  58H    basis set group =>   4
Atom  59H    basis set group =>   4


           ************************************************************
           *        Program running with 4 parallel MPI-processes     *
           *              working on a common directory               *
           ************************************************************
------------------------------------------------------------------------------
                             ORCA STARTUP CALCULATIONS
                           -- RI-GTO INTEGRALS CHOSEN --
------------------------------------------------------------------------------
------------------------------------------------------------------------------
                   ___                                                        
                  /   \      - P O W E R E D   B Y -                         
                 /     \                                                     
                 |  |  |   _    _      __       _____    __    __             
                 |  |  |  | |  | |    /  \     |  _  \  |  |  /  |          
                  \  \/   | |  | |   /    \    | | | |  |  | /  /          
                 / \  \   | |__| |  /  /\  \   | |_| |  |  |/  /          
                |  |  |   |  __  | /  /__\  \  |    /   |      \           
                |  |  |   | |  | | |   __   |  |    \   |  |\   \          
                \     /   | |  | | |  |  |  |  | |\  \  |  | \   \       
                 \___/    |_|  |_| |__|  |__|  |_| \__\ |__|  \__/        
                                                                              
                      - O R C A' S   B I G   F R I E N D -                    
                                      &                                       
                       - I N T E G R A L  F E E D E R -                       
                                                                              
 v1 FN, 2020, v2 2021, v3 2022-2024                                           
------------------------------------------------------------------------------


----------------------
SHARK INTEGRAL PACKAGE
----------------------

Number of atoms                             ...     60
Number of basis functions                   ...    561
Number of shells                            ...    267
Maximum angular momentum                    ...      2
Integral batch strategy                     ... SHARK/LIBINT Hybrid
RI-J (if used) integral strategy            ... SPLIT-RIJ (Revised 2003 algorithm where possible)
Printlevel                                  ...      1
Contraction scheme used                     ... SEGMENTED contraction
Prescreening option                         ... SCHWARTZ
   Thresh                                   ... 2.500e-11
   Tcut                                     ... 2.500e-12
   Tpresel                                  ... 2.500e-12 
Coulomb Range Separation                    ... NOT USED
Exchange Range Separation                   ... NOT USED
Multipole approximations                    ... NOT USED
Finite Nucleus Model                        ... NOT USED
CABS basis                                  ... NOT available
Auxiliary Coulomb fitting basis             ... AVAILABLE
   # of basis functions in Aux-J            ...   1762
   # of shells in Aux-J                     ...    590
   Maximum angular momentum in Aux-J        ...      4
Auxiliary J/K fitting basis                 ... NOT available
Auxiliary Correlation fitting basis         ... NOT available
Auxiliary 'external' fitting basis          ... NOT available

Checking pre-screening integrals            ... done (  0.0 sec) Dimension = 267
   => SHARK Basis and OBASIS are compatible. Storing Pre-screening
Shell pair information
Shell pair cut-off parameter TPreSel        ...   2.5e-12
Total number of shell pairs                 ...     35778
Shell pairs after pre-screening             ...     18471
Total number of primitive shell pairs       ...    127226
Primitive shell pairs kept                  ...     42157
          la=0 lb=0:   5970 shell pairs
          la=1 lb=0:   6989 shell pairs
          la=1 lb=1:   2082 shell pairs
          la=2 lb=0:   2058 shell pairs
          la=2 lb=1:   1192 shell pairs
          la=2 lb=2:    180 shell pairs

Checking whether 4 symmetric matrices of dimension 561 fit in memory
:Max Core in MB      =   2500.00
 MB in use           =     21.29
 MB left             =   2478.71
 MB needed           =      4.81
 Data fit in memory  = YES
Calculating RI/J V-Matrix + Cholesky decomp.... done (  0.3 sec)
Calculating Nuclear repulsion               ... done (  0.0 sec) ENN=   2593.549391138118 Eh

Diagonalization of the overlap matrix:
Smallest eigenvalue                        ... 2.023e-04
Time for diagonalization                   ...    0.057 sec
Threshold for overlap eigenvalues          ... 1.000e-07
Number of eigenvalues below threshold      ... 0
Time for construction of square roots      ...    0.039 sec
Total time needed                          ...    0.102 sec

-------------------
DFT GRID GENERATION
-------------------

General Integration Accuracy     IntAcc      ... 4.388
Radial Grid Type                 RadialGrid  ... OptM3 with GC (2021)
Angular Grid (max. ang.)         AngularGrid ... 4 (Lebedev-302)
Angular grid pruning method      GridPruning ... 4 (adaptive)
Weight generation scheme         WeightScheme... mBecke (2022)
Basis function cutoff            BFCut       ... 1.0000e-11
Integration weight cutoff        WCut        ... 1.0000e-14
Partially contracted basis set               ... off
Rotationally invariant grid construction     ... off
Angular grids for H and He will be reduced by one unit

Total number of grid points                  ...   271615
Total number of batches                      ...     4270
Average number of points per batch           ...       63
Average number of grid points per atom       ...     4527

--------------------
COSX GRID GENERATION
--------------------

GRIDX 1
-------
General Integration Accuracy     IntAcc      ... 3.816
Radial Grid Type                 RadialGrid  ... OptM3 with GC (2021)
Angular Grid (max. ang.)         AngularGrid ... 1 (Lebedev-50)
Angular grid pruning method      GridPruning ... 4 (adaptive)
Weight generation scheme         WeightScheme... mBecke (2022)
Basis function cutoff            BFCut       ... 1.0000e-11
Integration weight cutoff        WCut        ... 1.0000e-14
Partially contracted basis set               ... on
Rotationally invariant grid construction     ... off
Angular grids for H and He will be reduced by one unit

Total number of grid points                  ...    34555
Total number of batches                      ...      310
Average number of points per batch           ...      111
Average number of grid points per atom       ...      576
UseSFitting                                  ... on

GRIDX 2
-------
General Integration Accuracy     IntAcc      ... 4.020
Radial Grid Type                 RadialGrid  ... OptM3 with GC (2021)
Angular Grid (max. ang.)         AngularGrid ... 2 (Lebedev-110)
Angular grid pruning method      GridPruning ... 4 (adaptive)
Weight generation scheme         WeightScheme... mBecke (2022)
Basis function cutoff            BFCut       ... 1.0000e-11
Integration weight cutoff        WCut        ... 1.0000e-14
Partially contracted basis set               ... on
Rotationally invariant grid construction     ... off
Angular grids for H and He will be reduced by one unit

Total number of grid points                  ...    73501
Total number of batches                      ...      609
Average number of points per batch           ...      120
Average number of grid points per atom       ...     1225
UseSFitting                                  ... on

GRIDX 3
-------
General Integration Accuracy     IntAcc      ... 4.338
Radial Grid Type                 RadialGrid  ... OptM3 with GC (2021)
Angular Grid (max. ang.)         AngularGrid ... 3 (Lebedev-194)
Angular grid pruning method      GridPruning ... 4 (adaptive)
Weight generation scheme         WeightScheme... mBecke (2022)
Basis function cutoff            BFCut       ... 1.0000e-11
Integration weight cutoff        WCut        ... 1.0000e-14
Partially contracted basis set               ... on
Rotationally invariant grid construction     ... off
Angular grids for H and He will be reduced by one unit

Total number of grid points                  ...   160044
Total number of batches                      ...     1283
Average number of points per batch           ...      124
Average number of grid points per atom       ...     2667
UseSFitting                                  ... on
Grids setup in   6.7 sec
Initializing property integral containers    ... done (  0.1 sec)

SHARK setup successfully completed in   7.7 seconds

Maximum memory used throughout the entire STARTUP-calculation: 78.0 MB


           ************************************************************
           *        Program running with 4 parallel MPI-processes     *
           *              working on a common directory               *
           ************************************************************
-------------------------------------------------------------------------------
                                 ORCA GUESS
                   Start orbitals & Density for SCF / CASSCF
-------------------------------------------------------------------------------

------------
SCF SETTINGS
------------
Hamiltonian:
 Density Functional     Method          .... DFT(GTOs)
 Exchange Functional    Exchange        .... B88
   X-Alpha parameter    XAlpha          ....  0.666667
   Becke's b parameter  XBeta           ....  0.004200
 Correlation Functional Correlation     .... LYP
 LDA part of GGA corr.  LDAOpt          .... VWN-5
 Gradients option       PostSCFGGA      .... off
 Hybrid DFT is turned on
   Fraction HF Exchange ScalHFX         ....  0.200000
   Scaling of DF-GGA-X  ScalDFX         ....  0.720000
   Scaling of DF-GGA-C  ScalDFC         ....  0.810000
   Scaling of DF-LDA-C  ScalLDAC        ....  1.000000
   Perturbative correction              ....  0.000000
   NL short-range parameter             ....  4.800000
 RI-approximation to the Coulomb term is turned on
   Number of AuxJ basis functions       .... 1762
   RIJ-COSX (HFX calculated with COS-X)).... on


General Settings:
 Integral files         IntName         .... opt
 Hartree-Fock type      HFTyp           .... RHF
 Total Charge           Charge          ....    0
 Multiplicity           Mult            ....    1
 Number of Electrons    NEL             ....  214
 Basis Dimension        Dim             ....  561
 Nuclear Repulsion      ENuc            ....   2593.5493911381 Eh

Convergence Acceleration:
 AO-DIIS                CNVDIIS         .... on
   Start iteration      DIISMaxIt       ....    12
   Startup error        DIISStart       ....  0.200000
   # of expansion vecs  DIISMaxEq       ....     5
   Bias factor          DIISBfac        ....   1.050
   Max. coefficient     DIISMaxC        ....  10.000
 MO-DIIS                CNVKDIIS        .... off
 Trust-Rad. Augm. Hess. CNVTRAH         .... auto
   Auto Start mean grad. ratio tolernc. ....  1.125000
   Auto Start start iteration           ....    50
   Auto Start num. interpolation iter.  ....    10
   Max. Number of Micro iterations      ....    24
   Max. Number of Macro iterations      .... Maxiter - #DIIS iter
   Number of Davidson start vectors     ....     2
   Converg. threshold    (grad. norm)   ....   1.000e-05
   Grad. Scal. Fac. for Micro threshold ....   0.100
   Minimum threshold for Micro iter.    ....   1.000e-02
   NR start threshold (gradient norm)   ....   1.000e-04
   Initial trust radius                 ....   0.400
   Minimum AH scaling param. (alpha)    ....   1.000
   Maximum AH scaling param. (alpha)    .... 1000.000
   Quad. conv. algorithm                .... NR
   White noise on init. David. guess    .... on
   Maximum white noise                  ....   0.010
   Pseudo random numbers                .... off
   Inactive MOs                         .... canonical
   Orbital update algorithm             .... Taylor
   Preconditioner                       .... Diag
   Full preconditioner red. dimension   ....   250
 SOSCF                 CNVSOSCF           .... on
   Start iteration     SOSCFMaxIt         ....   150
   Startup grad/error  SOSCFStart         ....  0.003300
   Hessian update      SOSCFHessUp        .... L-BFGS
   Autom. constraints  SOSCFAutoConstrain .... off
 Level Shifting         CNVShift        .... on
   Level shift para.    LevelShift      ....    0.2500
   Turn off err/grad.   ShiftErr        ....    0.0010
 Zerner damping         CNVZerner       .... off
 Static damping         CNVDamp         .... on
   Fraction old density DampFac         ....    0.7000
   Max. Damping (<1)    DampMax         ....    0.9800
   Min. Damping (>=0)   DampMin         ....    0.0000
   Turn off err/grad.   DampErr         ....    0.1000

SCF Procedure:
 Maximum # iterations   MaxIter         ....   300
 SCF integral mode      SCFMode         .... Direct
   Integral package                     .... SHARK and LIBINT hybrid scheme
 Reset frequency        DirectResetFreq ....    20
 Integral Threshold     Thresh          ....  2.500e-11 Eh
 Primitive CutOff       TCut            ....  2.500e-12 Eh

Convergence Tolerance:
 Convergence Check Mode ConvCheckMode   .... Total+1el-Energy
 Convergence forced     ConvForced      .... 0
 Energy Change          TolE            ....  1.000e-08 Eh
 1-El. energy change                    ....  1.000e-05 Eh
 Orbital Gradient       TolG            ....  1.000e-05
 Orbital Rotation angle TolX            ....  1.000e-05
 DIIS Error             TolErr          ....  5.000e-07

------------------------------
INITIAL GUESS: MODEL POTENTIAL
------------------------------
Loading Hartree-Fock densities                     ... done
Calculating cut-offs                               ... done
Initializing the effective Hamiltonian             ... done
Setting up the integral package (SHARK)            ... done
Starting the Coulomb interaction                   ... done (   1.1 sec)
Making the grid                                    ... done (   0.9 sec)
Mapping shells                                     ... done
Starting the XC term evaluation                    ... done (   0.8 sec)
  promolecular density results
     # of electrons  =    213.991438492
     EX              =   -172.143069898
     EC              =     -7.222077130
     EX+EC           =   -179.365147028
Transforming the Hamiltonian                       ... done (   0.0 sec)
Diagonalizing the Hamiltonian                      ... done (   0.1 sec)
Back transforming the eigenvectors                 ... done (   0.0 sec)
Now organizing SCF variables                       ... done
                      ------------------
                      INITIAL GUESS DONE (   3.1 sec)
                      ------------------
             **** ENERGY FILE WAS UPDATED (opt.en.tmp) ****
Finished Guess after   3.3 sec
Maximum memory used throughout the entire GUESS-calculation: 30.6 MB


           ************************************************************
           *        Program running with 4 parallel MPI-processes     *
           *              working on a common directory               *
           ************************************************************

-------------------------------------------------------------------------------------------
                                      ORCA LEAN-SCF
                              memory conserving SCF solver
-------------------------------------------------------------------------------------------

--------------------
CPCM SOLVATION MODEL
--------------------
CPCM parameters:
  Epsilon                                         ...      25.4510
  Refrac                                          ...       1.3611
  Rsolv                                           ...       1.3000
  Surface type                                    ... GAUSSIAN VDW
  Discretization scheme                           ... Constant charge density
    Threshold for H atoms                         ...       5.0000 (charges/Ang^2)
    Threshold for non-H atoms                     ...       5.0000 (charges/Ang^2)
  Epsilon function type                           ...         CPCM
Solvent:                                          ... ETHANOL
Radii:
  Scheme                                          ... Element-dependent radii
  Radius for C  used is    3.8550 Bohr (=   2.0400 Ang.)
  Radius for O  used is    3.4469 Bohr (=   1.8240 Ang.)
  Radius for N  used is    3.5149 Bohr (=   1.8600 Ang.)
  Radius for H  used is    2.4944 Bohr (=   1.3200 Ang.)
Calculating surface                               ...        done! (  0.0s)
Cavity surface points                             ...         4955
Cavity Volume                                     ...    3349.3858
Cavity Surface-area                               ...    1714.8722
Calculating surface distance matrix               ...        done! (  0.2s)
Performing Cholesky decomposition & store         ...        done! (  1.5s)
Overall time for CPCM initialization              ...                 1.8s

----------------------------------------D-I-I-S--------------------------------------------
Iteration    Energy (Eh)           Delta-E    RMSDP     MaxDP     DIISErr   Damp  Time(sec)
-------------------------------------------------------------------------------------------
               ***  Starting incremental Fock matrix formation  ***
    1    -1286.4626739445370731     0.00e+00  4.10e-03  9.18e-02  2.63e-01  0.700  24.5
    2    -1286.8050729613964904    -3.42e-01  2.80e-03  5.13e-02  1.04e-01  0.700  14.5
                               ***Turning on AO-DIIS***
    3    -1286.9440479904069434    -1.39e-01  1.26e-03  1.90e-02  3.64e-02  0.700  14.5
    4    -1287.0272041893740607    -8.32e-02  2.29e-03  4.04e-02  1.96e-02  0.000  12.2
    5    -1287.2077300091491452    -1.81e-01  3.48e-04  7.32e-03  6.03e-03  0.000  11.6
                              *** Initializing SOSCF ***
---------------------------------------S-O-S-C-F--------------------------------------
Iteration    Energy (Eh)           Delta-E    RMSDP     MaxDP     MaxGrad    Time(sec)
--------------------------------------------------------------------------------------
    6    -1287.2087336747199515    -1.00e-03  1.15e-04  1.78e-03  1.55e-03    11.4
               *** Restarting incremental Fock matrix formation ***
    7    -1287.2086577257628051     7.59e-05  8.35e-05  1.36e-03  2.14e-04    26.5
    8    -1287.2086576612855424     6.45e-08  3.23e-05  9.36e-04  3.62e-04    18.1
    9    -1287.2086669386740141    -9.28e-06  2.27e-05  3.63e-04  7.31e-05    13.7
   10    -1287.2086667697140001     1.69e-07  1.05e-05  2.35e-04  6.09e-05    13.3
   11    -1287.2086678987566302    -1.13e-06  4.25e-06  1.25e-04  2.38e-05    12.1
   12    -1287.2086678803461837     1.84e-08  2.45e-06  7.66e-05  3.47e-05    11.1
   13    -1287.2086679395488318    -5.92e-08  8.52e-07  2.53e-05  3.74e-06    11.9
   14    -1287.2086679456638194    -6.11e-09  5.04e-07  1.45e-05  4.55e-06    10.3
                 **** Energy Check signals convergence ****

               *****************************************************
               *                     SUCCESS                       *
               *           SCF CONVERGED AFTER  14 CYCLES          *
               *****************************************************

Recomputing exchange energy using gridx3       ... done (   35.486 sec)
Old exchange energy                            :    -35.004035320 Eh
New exchange energy                            :    -35.003968545 Eh
Exchange energy change after final integration :      0.000066775 Eh
Total energy after final integration           :  -1287.208601181 Eh
[...]

 47 H s       :     0.893286  s :     0.893286
      pz      :     0.021676  p :     0.072903
      px      :     0.012751
      py      :     0.038476

 48 H s       :     0.892831  s :     0.892831
      pz      :     0.020614  p :     0.074305
      px      :     0.026085
      py      :     0.027606

 49 H s       :     0.721815  s :     0.721815
      pz      :     0.039601  p :     0.229928
      px      :     0.155499
      py      :     0.034827

 50 H s       :     0.906484  s :     0.906484
      pz      :     0.016065  p :     0.066103
      px      :     0.022671
      py      :     0.027367

 51 H s       :     0.903575  s :     0.903575
      pz      :     0.015395  p :     0.064735
      px      :     0.038343
      py      :     0.010998

 52 H s       :     0.908657  s :     0.908657
      pz      :     0.016606  p :     0.065015
      px      :     0.023326
      py      :     0.025083

 53 H s       :     0.909909  s :     0.909909
      pz      :     0.016295  p :     0.065165
      px      :     0.035709
      py      :     0.013160

 54 H s       :     0.902950  s :     0.902950
      pz      :     0.015529  p :     0.064439
      px      :     0.014245
      py      :     0.034665

 55 H s       :     0.903649  s :     0.903649
      pz      :     0.013612  p :     0.064741
      px      :     0.031619
      py      :     0.019510

 56 H s       :     0.906490  s :     0.906490
      pz      :     0.036474  p :     0.066048
      px      :     0.012303
      py      :     0.017271

 57 H s       :     0.902895  s :     0.902895
      pz      :     0.014961  p :     0.064450
      px      :     0.026810
      py      :     0.022678

 58 H s       :     0.909538  s :     0.909538
      pz      :     0.013447  p :     0.065276
      px      :     0.030491
      py      :     0.021337

 59 H s       :     0.908926  s :     0.908926
      pz      :     0.033737  p :     0.064999
      px      :     0.014726
      py      :     0.016536



                      *****************************
                      * MAYER POPULATION ANALYSIS *
                      *****************************

  NA   - Mulliken gross atomic population
  ZA   - Total nuclear charge
  QA   - Mulliken gross atomic charge
  VA   - Mayer's total valence
  BVA  - Mayer's bonded valence
  FA   - Mayer's free valence

  ATOM       NA         ZA         QA         VA         BVA        FA
  0 C      6.0184     6.0000    -0.0184     4.0164     4.0164     0.0000
  1 C      5.9960     6.0000     0.0040     4.1211     4.1211    -0.0000
  2 C      6.0076     6.0000    -0.0076     4.0789     4.0789     0.0000
  3 C      6.0037     6.0000    -0.0037     4.0701     4.0701    -0.0000
  4 C      5.9722     6.0000     0.0278     4.0687     4.0687    -0.0000
  5 C      5.7947     6.0000     0.2053     3.9436     3.9436    -0.0000
  6 O      8.3143     8.0000    -0.3143     2.2194     2.2194    -0.0000
  7 C      5.7564     6.0000     0.2436     4.2396     4.2396     0.0000
  8 O      8.2699     8.0000    -0.2699     2.2447     2.2447     0.0000
  9 C      6.0164     6.0000    -0.0164     3.6664     3.6664     0.0000
 10 C      6.0106     6.0000    -0.0106     3.8727     3.8727     0.0000
 11 C      5.9861     6.0000     0.0139     3.8278     3.8278     0.0000
 12 C      5.9989     6.0000     0.0011     3.7501     3.7501     0.0000
 13 C      5.9887     6.0000     0.0113     3.8483     3.8483     0.0000
 14 C      5.9906     6.0000     0.0094     3.8032     3.8032     0.0000
 15 C      5.8484     6.0000     0.1516     3.9700     3.9700     0.0000
 16 O      8.3356     8.0000    -0.3356     2.2033     2.2033    -0.0000
 17 C      6.0275     6.0000    -0.0275     3.5361     3.5361    -0.0000
 18 C      6.0250     6.0000    -0.0250     3.8373     3.8373     0.0000
 19 C      6.0726     6.0000    -0.0726     3.8133     3.8133     0.0000
 20 C      5.7886     6.0000     0.2114     3.7765     3.7765    -0.0000
 21 C      6.1474     6.0000    -0.1474     3.7396     3.7396     0.0000
 22 C      5.8884     6.0000     0.1116     4.0779     4.0779     0.0000
 23 O      8.2088     8.0000    -0.2088     2.3014     2.3014    -0.0000
 24 N      7.2743     7.0000    -0.2743     3.3100     3.3100    -0.0000
 25 C      5.8970     6.0000     0.1030     4.0930     4.0930     0.0000
 26 C      5.9978     6.0000     0.0022     4.0113     4.0113     0.0000
 27 C      5.8965     6.0000     0.1035     4.0947     4.0947    -0.0000
 28 C      5.9976     6.0000     0.0024     4.0140     4.0140    -0.0000
 29 H      0.9904     1.0000     0.0096     0.9878     0.9878     0.0000
 30 H      0.9829     1.0000     0.0171     0.9907     0.9907    -0.0000
 31 H      0.9884     1.0000     0.0116     0.9823     0.9823     0.0000
 32 H      1.0031     1.0000    -0.0031     0.9778     0.9778    -0.0000
 33 H      1.0014     1.0000    -0.0014     0.9727     0.9727    -0.0000
 34 H      0.9975     1.0000     0.0025     0.9840     0.9840     0.0000
 35 H      1.0059     1.0000    -0.0059     0.9775     0.9775     0.0000
 36 H      0.9936     1.0000     0.0064     0.9971     0.9971    -0.0000
 37 H      1.0010     1.0000    -0.0010     0.9790     0.9790    -0.0000
 38 H      0.9899     1.0000     0.0101     0.9859     0.9859     0.0000
 39 H      0.9899     1.0000     0.0101     0.9837     0.9837    -0.0000
 40 H      0.9729     1.0000     0.0271     0.9888     0.9888     0.0000
 41 H      0.9775     1.0000     0.0225     1.0080     1.0080    -0.0000
 42 H      0.9977     1.0000     0.0023     1.0080     1.0080     0.0000
 43 H      0.9881     1.0000     0.0119     0.9943     0.9943    -0.0000
 44 H      0.9998     1.0000     0.0002     0.9990     0.9990    -0.0000
 45 H      0.9902     1.0000     0.0098     1.0018     1.0018     0.0000
 46 H      0.9970     1.0000     0.0030     0.9971     0.9971     0.0000
 47 H      1.0117     1.0000    -0.0117     0.9913     0.9913    -0.0000
 48 H      1.0284     1.0000    -0.0284     1.0139     1.0139     0.0000
 49 H      0.8066     1.0000     0.1934     1.0870     1.0870    -0.0000
 50 H      0.9687     1.0000     0.0313     0.9824     0.9824    -0.0000
 51 H      0.9756     1.0000     0.0244     0.9861     0.9861     0.0000
 52 H      0.9769     1.0000     0.0231     0.9965     0.9965     0.0000
 53 H      0.9800     1.0000     0.0200     0.9997     0.9997     0.0000
 54 H      0.9764     1.0000     0.0236     0.9881     0.9881     0.0000
 55 H      0.9757     1.0000     0.0243     0.9861     0.9861     0.0000
 56 H      0.9695     1.0000     0.0305     0.9822     0.9822     0.0000
 57 H      0.9765     1.0000     0.0235     0.9881     0.9881    -0.0000
 58 H      0.9790     1.0000     0.0210     0.9989     0.9989    -0.0000
 59 H      0.9776     1.0000     0.0224     0.9965     0.9965    -0.0000

  Mayer bond orders larger than 0.100000
B(  0-C ,  1-C ) :   1.1039 B(  0-C , 29-H ) :   0.9697 B(  0-C , 30-H ) :   0.9703 
B(  0-C , 31-H ) :   0.9648 B(  1-C ,  2-C ) :   1.0928 B(  1-C , 32-H ) :   0.9427 
B(  1-C , 33-H ) :   0.9419 B(  2-C ,  3-C ) :   1.0785 B(  2-C , 34-H ) :   0.9412 
B(  2-C , 35-H ) :   0.9361 B(  3-C ,  4-C ) :   1.0876 B(  3-C , 36-H ) :   0.9409 
B(  3-C , 37-H ) :   0.9365 B(  4-C ,  5-C ) :   1.0850 B(  4-C , 38-H ) :   0.9258 
B(  4-C , 39-H ) :   0.9318 B(  5-C ,  6-O ) :   0.8668 B(  5-C , 40-H ) :   0.9489 
B(  5-C , 41-H ) :   0.9451 B(  6-O ,  7-C ) :   1.2368 B(  7-C ,  8-O ) :   2.0304 
B(  7-C ,  9-C ) :   0.9378 B(  9-C , 10-C ) :   1.3715 B(  9-C , 14-C ) :   1.3361 
B( 10-C , 11-C ) :   1.3643 B( 10-C , 42-H ) :   0.9904 B( 11-C , 12-C ) :   1.3563 
B( 11-C , 43-H ) :   0.9917 B( 12-C , 13-C ) :   1.3572 B( 12-C , 15-C ) :   0.9637 
B( 13-C , 14-C ) :   1.3572 B( 13-C , 44-H ) :   0.9955 B( 14-C , 45-H ) :   0.9929 
B( 15-C , 16-O ) :   1.8294 B( 15-C , 17-C ) :   1.0941 B( 16-O , 49-H ) :   0.1937 
B( 17-C , 18-C ) :   1.2308 B( 17-C , 22-C ) :   1.1720 B( 18-C , 19-C ) :   1.4870 
B( 18-C , 46-H ) :   0.9751 B( 19-C , 20-C ) :   1.2033 B( 19-C , 47-H ) :   0.9875 
B( 20-C , 21-C ) :   1.2474 B( 20-C , 24-N ) :   1.2217 B( 21-C , 22-C ) :   1.3594 
B( 21-C , 48-H ) :   0.9916 B( 22-C , 23-O ) :   1.3481 B( 23-O , 49-H ) :   0.8537 
B( 24-N , 25-C ) :   0.9769 B( 24-N , 27-C ) :   0.9775 B( 25-C , 26-C ) :   1.1231 
B( 25-C , 50-H ) :   0.9378 B( 25-C , 51-H ) :   0.9411 B( 26-C , 52-H ) :   0.9623 
B( 26-C , 53-H ) :   0.9625 B( 26-C , 54-H ) :   0.9595 B( 27-C , 28-C ) :   1.1244 
B( 27-C , 55-H ) :   0.9412 B( 27-C , 56-H ) :   0.9362 B( 28-C , 57-H ) :   0.9598 
B( 28-C , 58-H ) :   0.9624 B( 28-C , 59-H ) :   0.9623 

-------
TIMINGS
-------

Total SCF time: 0 days 0 hours 3 min 54 sec 

Total time                  ....     234.845 sec
Sum of individual times     ....     224.081 sec  ( 95.4%)

SCF preparation             ....       8.686 sec  (  3.7%)
Fock matrix formation       ....     212.260 sec  ( 90.4%)
  Startup                   ....       0.215 sec  (  0.1% of F)
  Split-RI-J                ....      21.405 sec  ( 10.1% of F)
  Chain of spheres X        ....     152.433 sec  ( 71.8% of F)
  XC integration            ....      20.602 sec  (  9.7% of F)
    Basis function eval.    ....       7.426 sec  ( 36.0% of XC)
    Density eval.           ....       4.627 sec  ( 22.5% of XC)
    XC-Functional eval.     ....       0.705 sec  (  3.4% of XC)
    XC-Potential eval.      ....       4.765 sec  ( 23.1% of XC)
  CPCM terms                ....      26.359 sec  ( 12.4% of F)
Diagonalization             ....       0.000 sec  (  0.0%)
Density matrix formation    ....       0.434 sec  (  0.2%)
Total Energy calculation    ....       0.226 sec  (  0.1%)
Population analysis         ....       0.364 sec  (  0.2%)
Orbital Transformation      ....       0.152 sec  (  0.1%)
Orbital Orthonormalization  ....       0.000 sec  (  0.0%)
DIIS solution               ....       0.279 sec  (  0.1%)
SOSCF solution              ....       1.680 sec  (  0.7%)
Finished LeanSCF after 235.8 sec

Maximum memory used throughout the entire LEANSCF-calculation: 119.5 MB

-------------------------   --------------------
FINAL SINGLE POINT ENERGY     -1287.218520495824
-------------------------   --------------------

                                *** OPTIMIZATION RUN DONE ***



           ************************************************************
           *        Program running with 4 parallel MPI-processes     *
           *              working on a common directory               *
           ************************************************************

------------------------------------------------------------------------------
                              ORCA PROPERTY CALCULATIONS
------------------------------------------------------------------------------

GBWName                                 ... opt.gbw
Number of atoms                         ...     60
Number of basis functions               ...    561
Max core memory                         ...   2500 MB

Electric properties:
Dipole moment                           ... YES
Quadrupole moment                       ...  NO
Static polarizability (Dipole/Dipole)   ...  NO
Static polarizability (Dipole/Quad.)    ...  NO
Static polarizability (Quad./Quad.)     ...  NO
Static polarizability (Velocity)        ...  NO
Static hyperpolarizability              ...  NO

Atomic electric properties:
Dipole moment                           ...  NO
Quadrupole moment                       ...  NO
Static polarizability                   ...  NO

Choice of electric origin               ... Center of mass
Position of electric origin             ...    -0.361132     0.116156     0.203045

General magnetic properties:
Magnetizability                         ...  NO

EPR properties:
g-Tensor (aka g-matrix)                 ...  NO
Zero-Field splitting spin-orbit         ...  NO
Zero-field splitting spin-spin          ...  NO
Hyperfine couplings                     ...  NO (   0 nuclei)
Quadrupole couplings                    ...  NO (   0 nuclei)
Contact density                         ...  NO (   0 nuclei)

NMR properties:
Chemical shifts                         ...  NO (   0 nuclei)
Spin-rotation constants                 ...  NO (   0 nuclei)
Spin-spin couplings                     ...  NO (   0 nuclei,    0 pairs)

Choice of magnetic origin               ... GIAO
Position of magnetic origin             ...     0.000000     0.000000     0.000000

Properties with geometric perturbations:
SCF Hessian                             ...  NO
IR spectrum                             ...  NO
VCD spectrum                            ...  NO
X-ray spectroscopy properties:
SCF XES/XAS/RIXS spectra                ...  NO

SCF SOC stabilization energy            ...  NO
Diagonal Born-Oppenheimer correction    ...  NO

-------------
DIPOLE MOMENT
-------------

Method             : SCF
Type of density    : Electron Density
Multiplicity       :   1
Irrep              :   0
Energy             : -1287.2185204958236682 Eh
Basis              : AO
                                X                 Y                 Z
Electronic contribution:    -13.762249184       1.535768660       5.904372026
Nuclear contribution   :     12.006944434      -3.285959152      -6.120121556
                        -----------------------------------------
Total Dipole Moment    :     -1.755304750      -1.750190492      -0.215749530
                        -----------------------------------------
Magnitude (a.u.)       :      2.488133715
Magnitude (Debye)      :      6.324333300



--------------------
Rotational spectrum 
--------------------
 
Rotational constants in cm-1:             0.013524             0.001512             0.001409 
Rotational constants in MHz :           405.447915            45.343447            42.239300 

Dipole components along the rotational axes: 
x,y,z [a.u.] :    -1.554967    -1.807391     0.711494 
x,y,z [Debye]:    -3.952412    -4.594024     1.808474 

 

Dipole moment calculation done in   0.1 sec 

Maximum memory used throughout the entire PROP-calculation: 32.7 MB

--------------------------------
SUGGESTED CITATIONS FOR THIS RUN
--------------------------------

Below you find a list of papers that are relevant to this ORCA run
We neither can nor want to force you to cite these papers, but we appreciate if you do
You receive ORCA, which is the product of decades of hard work by many enthusiastic individuals, for free
The only thing we kindly ask in return is that you cite our papers,
We deeply appreciate it, if you show your appreciation for ORCA by not just citing the generic ORCA reference.

Please note that relegating all ORCA citations to the supporting information does *not* help us.
SI sections are not indexed - citations you put there will not count into any citation statistics
But we need these citations in order to attract the funding resources that allow us to do what we are doing

Therefore, if you are a happy ORCA user, please consider citing a few of the papers listed below in the main body of your paper

In addition to the list printed below, the program has created the file opt.bibtex that contains the list in bibtex format
You can import this file easily into all common literature databanks and citation aid programs

It goes without saying that in many instances, there are alternative algorithms to achieve similar
results as the ones you have gotten from ORCA. It is, of course, also the case that in some instances
ORCA just re-implements algorithms worked out by others. We are fully aware of that and we are also
fully appreciative of our colleagues work. Hence this citation list should not be read as indicating
that the listed papers, which are focused on our own work, are the only ones worth citing. It simply
meant to make it easier for users to cite ORCA specific papers. It is not a substitute for doing your
own literature research and citing the relevant literature in a scientifically appropriate manner.

List of essential papers. We consider these as the minimum necessary citations

  1. Neese, F.
     Software update: the ORCA program system, version 6.0
     WIRES Comput. Molec. Sci. 2025 15(1), e70019
     doi.org/10.1002/wcms.70019

List of papers to cite with high priority. The work reported in these papers was absolutely
necessary for this run to complete.
Our perspective: the developers of density functionals and basis sets usually get cited in chemistry papers
Good! But without the algorithms to do something with them, the functionals or basis sets would not do anything.
Hence, in our opinion, the algorithm design and method developments papers are equally worthy of getting cited

  1. Neese, F.
     An improvement of the resolution of the identity approximation for the formation of the Coulomb matrix
     J. Comp. Chem. 2003 24(14), 1740-1747
     doi.org/10.1002/jcc.10318
  2. Neese, F.; Wennmohs, F.; Hansen, A.; Becker, U.
     Efficient, approximate and parallel Hartree-Fock and hybrid DFT calculations. A 'chain-of-spheres' algorithm for the Hartree-Fock exchange
     Chem. Phys. 2009 356(1-3), 98-109
     doi.org/10.1016/j.chemphys.2008.10.036
  3. Garcia-Rates, M.; Neese, F.
     Effect of the Solute Cavity on the Solvation Energy and its Derivatives within the Framework of the Gaussian Charge Scheme
     J. Comput. Chem. 2020 41 , 922-939
     doi.org/10.1002/jcc.26139
  4. Helmich-Paris, B.; de Souza, B.; Neese, F.; Izsák, R.
     An improved chain of spheres for exchange algorithm
     J. Chem. Phys. 2021 155(10), 104109
     doi.org/10.1063/5.0058766
  5. Neese, F.
     The SHARK Integral Generation and Digestion System
     J. Comp. Chem. 2022 44(3), 381
     doi.org/10.1002/jcc.26942

List of suggested additional citations. These are papers that are important in the 'surrounding' of 
of this run, or papers that preceded the highly important papers. If you like your results we are grateful for a citation.

  1. Izsak, R.; Neese, F.
     An overlap fitted chain of spheres exchange method
     J. Chem. Phys. 2011 135 , 144105
     doi.org/10.1063/1.3646921
  2. Izsak, R.; Hansen, A.; Neese, F.
     The resolution of identity and chain of spheres approximations for the LPNO-CCSD singles Fock term
     Molec. Phys. 2012 110 , 2413-2417
     doi.org/10.1080/00268976.2012.687466
  3. Neese, F.
     The ORCA program system
     WIRES Comput. Molec. Sci. 2012 2(1), 73-78
     doi.org/10.1002/wcms.81
  4. Izsak, R.; Neese, F.; Klopper, W.
     Robust fitting techniques in the chain of spheres approximation to the Fock exchange: The role of the complementary space
     J. Chem. Phys. 2013 139 , 
     doi.org/10.1063/1.4819264
  5. Neese, F.
     Software update: the ORCA program system, version 4.0
     WIRES Comput. Molec. Sci. 2018 8(1), 1-6
     doi.org/10.1002/wcms.1327
  6. Neese, F.; Wennmohs, F.; Becker, U.; Riplinger, C.
     The ORCA quantum chemistry program package
     J. Chem. Phys. 2020 152(22), 224108
     doi.org/10.1063/5.0004608
  7. Neese, F.
     Software update: The ORCA program system—Version 5.0
     WIRES Comput. Molec. Sci. 2022 12(1), e1606
     doi.org/10.1002/wcms.1606

List of optional additional citations

  1. Neese, F.
     Approximate second-order SCF convergence for spin unrestricted wavefunctions
     Chem. Phys. Lett. 2000 325(1-3), 93-98
     doi.org/10.1016/s0009-2614(00)00662-x

Timings for individual modules:

Sum of individual times          ...     4998.301 sec (=  83.305 min)
Startup calculation              ...      142.718 sec (=   2.379 min)   2.9 %
SCF iterations                   ...     3190.647 sec (=  53.177 min)  63.8 %
Property calculations            ...        0.754 sec (=   0.013 min)   0.0 %
SCF Gradient evaluation          ...     1663.055 sec (=  27.718 min)  33.3 %
Geometry relaxation              ...        1.127 sec (=   0.019 min)   0.0 %
                             ****ORCA TERMINATED NORMALLY****
TOTAL RUN TIME: 0 days 1 hours 23 minutes 29 seconds 202 msec
