
                                 *****************
                                 * O   R   C   A *
                                 *****************

                                            #,                                       
                                            ###                                      
                                            ####                                     
                                            #####                                    
                                            ######                                   
                                           ########,                                 
                                     ,,################,,,,,                         
                               ,,#################################,,                 
                          ,,##########################################,,             
                       ,#########################################, ''#####,          
                    ,#############################################,,   '####,        
                  ,##################################################,,,,####,       
                ,###########''''           ''''###############################       
              ,#####''   ,,,,##########,,,,          '''####'''          '####       
            ,##' ,,,,###########################,,,                        '##       
           ' ,,###''''                  '''############,,,                           
         ,,##''                                '''############,,,,        ,,,,,,###''
      ,#''                                            '''#######################'''  
     '                                                          ''''####''''         
             ,#######,   #######,   ,#######,      ##                                
            ,#'     '#,  ##    ##  ,#'     '#,    #''#        ,####,    ,#,          
            ##       ##  ##   ,#'  ##            #'  '#       #'       ,# #          
            ##       ##  #######   ##           ,######,      #####,      #          
            '#,     ,#'  ##    ##  '#,     ,#' ,#      #,     #,   #      #          
             '#######'   ##     ##  '#######'  #'      '#     '####' #    #          



                #########################################################
                #                        -***-                          #
                #          Department of theory and spectroscopy        #
                #                                                       #
                #                      Frank Neese                      #
                #                                                       #
                #     Directorship, Architecture, Infrastructure        #
                #                    SHARK, DRIVERS                     #
                #        Core code/Algorithms in most modules           #
                #                                                       #
                #        Max Planck Institute fuer Kohlenforschung      #
                #                Kaiser Wilhelm Platz 1                 #
                #                 D-45470 Muelheim/Ruhr                 #
                #                      Germany                          #
                #                                                       #
                #                  All rights reserved                  #
                #                        -***-                          #
                #########################################################


                         Program Version 6.1.1  -  RELEASE   -


 With contributions from (in alphabetic order):
[Max-Planck-Institut fuer Kohlenforschung]                               
  Daniel Aravena         : Magnetic Suceptibility                        
  Michael Atanasov       : Ab Initio Ligand Field Theory (pilot matlab implementation)
  Alexander A. Auer      : GIAO ZORA, VPT2 properties, NMR spectrum      
  Ute Becker             : All parallelization in ORCA, NUMFREQ, NUMCALC 
  Giovanni Bistoni       : ED, misc. LED, open-shell LED, HFLD           
  Dmytro Bykov           : pre 5.0 version of the SCF Hessian            
  Marcos Casanova-Páez   : Triplet and SCS-CIS(D). UHF-(DLPNO)-IP/EA/STEOM-CCSD. UHF-CVS-IP/STEOM-CCSD   
  Vijay G. Chilkuri      : MRCI spin determinant printing, contributions to CSF-ICE 
  Pauline Colinet        : FMM embedding                                 
  Dipayan Datta          : RHF DLPNO-CCSD density                        
  Achintya Kumar Dutta   : EOM-CC, STEOM-CC                              
  Nicolas Foglia         : Exact transition moments, OPA infrastructure, MCD improvements    
  Dmitry Ganyushin       : Spin-Orbit,Spin-Spin,Magnetic field MRCI      
  Miquel Garcia-Rates    : C-PCM and meta-GGA Hessian, CCSD/C-PCM, Gaussian charge scheme 
  Tiago L. C. Gouveia    : GS-ROHF, GS-ROCIS                             
  Yang Guo               : DLPNO-NEVPT2, F12-NEVPT2, CIM, IAO-localization        
  Andreas Hansen         : Spin unrestricted coupled pair/coupled cluster methods 
  Ingolf Harden          : AUTO-CI MPn and infrastructure                
  Benjamin Helmich-Paris : MC-RPA, TRAH-(SCF,CASSCF), AVAS, COSX integrals, SCF dyn. polar., MC-PDFT, srDFT 
  Lee Huntington         : MR-EOM, pCC                                   
  Robert Izsak           : Overlap fitted RIJCOSX, COSX-SCS-MP3, EOM     
  Riya Kayal             : Wick's Theorem for AUTO-CI, AUTO-CI UHF-CCSDT 
  Emily Kempfer          : AUTO-CI RHF CISDT and CCSDT, approximate NEVPT4
  Christian Kollmar      : KDIIS, OOCD, Brueckner-CCSD(T), CCSD density, CASPT2, CASPT2-K, improved NEVPT2 
  Axel Koslowski         : Symmetry handling                             
  Simone Kossmann        : meta-GGA functionals, TD-DFT gradient, OOMP2, (MP2 Hessian; deprecated post 5.0) 
  Lucas Lang             : DCDCAS, Hyperfine gauge corrections, ICE-SOC+SSC
  Marvin Lechner         : AUTO-CI (C++ implementation), FIC-MRCC        
  Spencer Leger          : CASSCF response                               
  Dagmar Lenk            : GEPOL surface, SMD, ORCA-2-JSON               
  Dimitrios Liakos       : Extrapolation schemes; Compound Job, Property file
  Dimitrios Manganas     : Further ROCIS development; embedding schemes. LFT, Crystal Embedding 
  Dimitrios Pantazis     : SARC Basis sets                               
  Anastasios Papadopoulos: AUTO-CI, single reference methods and gradients 
  Taras Petrenko         : pre 6.0 DFT Hessian and TD-DFT gradient,  ECA, NRVS 
  Petra Pikulova         : Analytic Raman intensities                    
  Peter Pinski           : DLPNO-MP2, DLPNO-MP2 Gradient                 
  Shashank Vittal Rao    : ES-AILFT, MagRelax                            
  Christoph Reimann      : Effective Core Potentials                     
  Marius Retegan         : Local ZFS, SOC                                
  Christoph Riplinger    : Optimizer, TS searches, QM/MM, DLPNO-CCSD(T), (RO)-DLPNO pert. Triples 
  Michael Roemelt        : Original ROCIS implementation, recursive CI coupling coefficients
  Masaaki Saitow         : Open-shell DLPNO-CCSD energy and density      
  Barbara Sandhoefer     : DKH picture change effects                    
  Yorick L. A. Schmerwitz: GMF and freeze-and-release deltaSCF, NEB S-IDPP initial path                    
  Kantharuban Sivalingam : CASSCF convergence/infrastructure, NEVPT2, NEVPT3, NEVPT4(SD), FIC-MRCI and CEPA variants
  Bernardo de Souza      : ESD, SOC TD-DFT                               
  Georgi L. Stoychev     : AutoAux, RI-MP2 NMR, DLPNO-MP2 response, X2C  
  Van Anh Tran           : RI-MP2 g-tensors                              
  Willem Van den Heuvel  : Paramagnetic NMR                              
  Zikuan Wang            : NOTCH, Electric field optimization            
  Frank Wennmohs         : Technical directorship and infrastructure     
  Hang Xu                : AUTO-CI-Response properties                   
                                                                         
[FACCTs GmbH]                                                            
  Markus Bursch, Nicolas Foglia, Miquel Garcia-Rates, Ingolf Harden, Hagen Neugebauer, Anastasios Papadopoulos, 
  Christoph Riplinger, Bernardo de Souza, Georgi L. Stoychev                                                    
                                                                 
  APM, various basis sets, CI-OPT, improved COSX, DLPNO-Multilevel,           
  DOCKER, DRACO, updates on ESD, Fragmentator, GOAT, IRC, LR-CPCM, L-BFGS, MBIS, meta-GGA TD-DFT gradient, ML-optimized integration grids, 
  MM, NACMEs, nearIR, NEB, NEB-TS, NL-DFT gradient (VV10), 2- and 3-layer-ONIOM, interface openCOSMO-RS, QMMM,   
  Crystal-QMMM, RESP, rigid body optimization, SF, symmetry and pop. for TD-DFT, various functionals, SOLVATOR                                   
                                                                         
[Other institutions]                                                     
  V. Asgeirsson          : NEB                                           
  Christoph Bannwarth    : sTDA-DFT, sTD-DFT, PBEh-3c, B97-3c, D3        
  Giovanni Bistoni       : ETS/NOCV, ADLD/ADEX, COVALED                  
  Martin Brehm           : Molecular dynamics                            
  Ronald Cardenas        : ETS/NOCV                                      
  Martina Colucci        : COVALED                                       
  Sebastian Ehlert       : rSCAN, r2SCAN, r2SCAN-3c, D4, dhf basis sets  
  Marvin Friede          : D4 for Fr, Ra, Ac-Lr                          
  Lars Goerigk           : TD-DFT with DH, B97 family of functionals     
  Stefan Grimme          : VdW corrections, initial TS optimization, DFT functionals, gCP, sTDA/sTD-DF 
  Waldemar Hujo          : DFT-NL                                        
  H. Jonsson             : NEB                                           
  Holger Kruse           : gCP                                           
  Marcel Mueller         : wB97X-3c, vDZP basis set                      
  Hagen Neugebauer       : wr2SCAN, Native XTB                           
  Gianluca Regni         : ADLD/ADEX                                     
  Tobias Risthaus        : pre 6.0 range-separated hybrid DFT and stability analysis
  Lukas Wittmann         : regularized MP2, r2SCAN double-hybrids, wr2SCAN        
                                                                         
We gratefully acknowledge several colleagues who have allowed us to      
interface, adapt or use parts of their codes:                            
  Ed Valeev, F. Pavosevic, A. Kumar             : LibInt (2-el integral package), F12 methods 
  Garnet Chan, S. Sharma, J. Yang, R. Olivares  : DMRG                   
  Ulf Ekstrom                                   : XCFun DFT Library      
  Mihaly Kallay                                 : mrcc  (arbitrary order and MRCC methods)
  Frank Weinhold                                : gennbo (NPA and NBO analysis)           
  Simon Mueller                                 : openCOSMO-RS                            
  Christopher J. Cramer and Donald G. Truhlar   : smd solvation model                     
  S Lehtola, MJT Oliveira, MAL Marques          : LibXC Library                           
  Liviu Ungur et al                             : ANISO software                          


 Your calculation uses the libint2 library for the computation of 2-el integrals
 For citations please refer to: http://libint.valeyev.net

 Your ORCA version has been built with support for libXC version: 7.0.0
 For citations please refer to: https://libxc.gitlab.io

 This ORCA versions uses:
   CBLAS   interface :  Fast vector & matrix operations
   LAPACKE interface :  Fast linear algebra routines
   Shared memory     :  Shared parallel matrices


  ***********************************
  * Starting time: Tue Jul 21 19:05:45 2026
  * Host name:     DESKTOP-19Q153E
  * Process ID:    26536
  * Working dir.:  C:\Users\ysm04\Documents\etc\uv_vis\calculations\02_tddft_orca\enolA\enolA_c004\b3lyp_631+gd\ethanol\dftopt22
  ***********************************

NOTE: MaxCore=2500 MB was set to SCF,MP2,MDCI,CIPSI,MRCI,RASCI and CIS
      => If you want to overwrite this, your respective input block should be placed after the MaxCore statement
================================================================================

----- Orbital basis set information -----
Your calculation utilizes the basis: 6-31+G(d)
   H-He, Li-Ne : W. J. Hehre, R. Ditchfield and J.A. Pople, J. Chem. Phys. 56, 2257 (1972).
                 Note: He and Ne are unpublished basis sets taken from the Gaussian program.
                 Note: Li and B from J. D. Dill and J. A. Pople, J. Chem. Phys. 62, 2921 (1975).
   Na - Ar     : M. M. Francl, W. J. Pietro, W. J. Hehre, J. S. Binkley, M. S. Gordon, 
                 D. J. DeFrees and J. A. Pople, J. Chem. Phys. 77, 3654 (1982).
   K - Zn      : V. A. Rassolov, J. A. Pople, M. A. Ratner, and T. L. Windus, J. Chem. Phys. 109, 1223 (1998).
   Additional Pol./Diff. from the 6-311G equivalent.

----- AuxJ basis set information -----
Your calculation utilizes the auxiliary basis: def2/J
   H-Rn: F. Weigend, Phys. Chem. Chem. Phys. 8, 1057 (2006).
   Fr-Lr: K. Eichkorn, F. Weigend, O. Treutler, R. Ahlrichs; Theor. Chem. Acc. 97, 119 (1997).

================================================================================
                                        WARNINGS
                       Please study these warnings very carefully!
================================================================================


WARNING: CIS/ROCIS methods need fully converged wavefunctions
  ===> : Setting SCFConvForced true
         You can overwrite this default with %scf ConvForced false 


================================================================================
                                       INPUT FILE
================================================================================
NAME = td.inp
|  1> # enolA / enolA_c004 / b3lyp_631+gd / solvent=ethanol
|  2> ! B3LYP 6-31+G(d) RIJCOSX def2/J TightSCF CPCM(Ethanol)
|  3> %pal nprocs 4 end
|  4> %maxcore 2500
|  5> %scf
|  6>   MaxIter 300
|  7> end
|  8> %tddft
|  9>   nroots 22
| 10>   tda    true
| 11>   maxdim 5
| 12> end
| 13> * xyz 0 1
| 14> C     -5.6759666382    -0.2631195101    -1.7477584265
| 15> C     -5.2058940842     0.4707883851    -0.4824216383
| 16> C     -6.2453497241     0.2450709477     0.6198769180
| 17> C     -5.1230497144     1.9801146630    -0.7574134169
| 18> C     -3.8274711526    -0.0447103113    -0.1025960874
| 19> C     -3.5716416959    -0.7205486808     1.0862990567
| 20> C     -2.3043927896    -1.1771159600     1.3939205965
| 21> C     -1.2342727387    -0.9589866731     0.5281169344
| 22> C     -1.4843979318    -0.2939705761    -0.6723579700
| 23> C     -2.7556924931     0.1450724701    -0.9759331602
| 24> C      0.1015556332    -1.4385020193     0.8957243608
| 25> O      0.1224946556    -2.4676661999     1.7335727615
| 26> C      1.2523925138    -0.8522522199     0.4380504636
| 27> C      2.5448126795    -1.3159300031     0.8524237388
| 28> O      2.6775504345    -2.2786443161     1.6397734071
| 29> C      3.7450923456    -0.6038875023     0.3658147620
| 30> C      3.7763973582     0.1454219254    -0.8131058002
| 31> C      4.9293299135     0.7866037370    -1.2026004693
| 32> C      6.0894630654     0.7113938215    -0.4238315358
| 33> O      7.1599706367     1.3993252683    -0.8904428631
| 34> C      8.3615560715     1.3879164482    -0.1435268422
| 35> C      6.0726554447    -0.0477765077     0.7443125680
| 36> C      4.9145843730    -0.6985097970     1.1188467649
| 37> H     -5.7266678410    -1.3345359110    -1.5647840134
| 38> H     -6.6654535461     0.0859631179    -2.0341700577
| 39> H     -4.9982566615    -0.0908154432    -2.5791962774
| 40> H     -6.3828452973    -0.8148488633     0.8197043904
| 41> H     -5.9548840317     0.7487060314     1.5389951016
| 42> H     -7.2027820026     0.6519040198     0.3013723978
| 43> H     -4.4680249461     2.1979684096    -1.5959020385
| 44> H     -6.1117602000     2.3692528806    -0.9898579869
| 45> H     -4.7436628801     2.5021108732     0.1186741729
| 46> H     -4.3622903801    -0.9033267327     1.7948787057
| 47> H     -2.1275805450    -1.6996051588     2.3221390231
| 48> H     -0.6866709405    -0.1442008550    -1.3832036945
| 49> H     -2.9119298415     0.6451659432    -1.9193504916
| 50> H      1.0844887666    -2.6734996246     1.9239479756
| 51> H      1.1879439863     0.0134815102    -0.1933097294
| 52> H      2.9058405362     0.2059590956    -1.4465607116
| 53> H      4.9660051588     1.3615964898    -2.1145611343
| 54> H      8.2081526118     1.7968781754     0.8587958068
| 55> H      9.0497589107     2.0245761866    -0.6959894076
| 56> H      8.7742911695     0.3779088246    -0.0715466409
| 57> H      6.9504185694    -0.1386964631     1.3634351893
| 58> H      4.8961832217    -1.2920298958     2.0217387279
| 59> *
| 60> 
| 61>                          ****END OF INPUT****
================================================================================

                       ****************************
                       * Single Point Calculation *
                       ****************************

---------------------------------
CARTESIAN COORDINATES (ANGSTROEM)
---------------------------------
  C     -5.675967   -0.263120   -1.747758
  C     -5.205894    0.470788   -0.482422
  C     -6.245350    0.245071    0.619877
  C     -5.123050    1.980115   -0.757413
  C     -3.827471   -0.044710   -0.102596
  C     -3.571642   -0.720549    1.086299
  C     -2.304393   -1.177116    1.393921
  C     -1.234273   -0.958987    0.528117
  C     -1.484398   -0.293971   -0.672358
  C     -2.755692    0.145072   -0.975933
  C      0.101556   -1.438502    0.895724
  O      0.122495   -2.467666    1.733573
  C      1.252393   -0.852252    0.438050
  C      2.544813   -1.315930    0.852424
  O      2.677550   -2.278644    1.639773
  C      3.745092   -0.603888    0.365815
  C      3.776397    0.145422   -0.813106
  C      4.929330    0.786604   -1.202600
  C      6.089463    0.711394   -0.423832
  O      7.159971    1.399325   -0.890443
  C      8.361556    1.387916   -0.143527
  C      6.072655   -0.047777    0.744313
  C      4.914584   -0.698510    1.118847
  H     -5.726668   -1.334536   -1.564784
  H     -6.665454    0.085963   -2.034170
  H     -4.998257   -0.090815   -2.579196
  H     -6.382845   -0.814849    0.819704
  H     -5.954884    0.748706    1.538995
  H     -7.202782    0.651904    0.301372
  H     -4.468025    2.197968   -1.595902
  H     -6.111760    2.369253   -0.989858
  H     -4.743663    2.502111    0.118674
  H     -4.362290   -0.903327    1.794879
  H     -2.127581   -1.699605    2.322139
  H     -0.686671   -0.144201   -1.383204
  H     -2.911930    0.645166   -1.919350
  H      1.084489   -2.673500    1.923948
  H      1.187944    0.013482   -0.193310
  H      2.905841    0.205959   -1.446561
  H      4.966005    1.361596   -2.114561
  H      8.208153    1.796878    0.858796
  H      9.049759    2.024576   -0.695989
  H      8.774291    0.377909   -0.071547
  H      6.950419   -0.138696    1.363435
  H      4.896183   -1.292030    2.021739

----------------------------
CARTESIAN COORDINATES (A.U.)
----------------------------
  NO LB      ZA    FRAG     MASS         X           Y           Z
   0 C     6.0000    0    12.011  -10.726022   -0.497224   -3.302785
   1 C     6.0000    0    12.011   -9.837714    0.889661   -0.911645
   2 C     6.0000    0    12.011  -11.802001    0.463117    1.171398
   3 C     6.0000    0    12.011   -9.681161    3.741874   -1.431304
   4 C     6.0000    0    12.011   -7.232872   -0.084490   -0.193879
   5 C     6.0000    0    12.011   -6.749425   -1.361640    2.052808
   6 C     6.0000    0    12.011   -4.354671   -2.224427    2.634128
   7 C     6.0000    0    12.011   -2.332437   -1.812222    0.997996
   8 C     6.0000    0    12.011   -2.805106   -0.555524   -1.270572
   9 C     6.0000    0    12.011   -5.207504    0.274147   -1.844246
  10 C     6.0000    0    12.011    0.191912   -2.718375    1.692674
  11 O     8.0000    0    15.999    0.231481   -4.663213    3.275978
  12 C     6.0000    0    12.011    2.366679   -1.610523    0.827795
  13 C     6.0000    0    12.011    4.808999   -2.486747    1.610847
  14 O     8.0000    0    15.999    5.059837   -4.306014    3.098723
  15 C     6.0000    0    12.011    7.077199   -1.141182    0.691290
  16 C     6.0000    0    12.011    7.136357    0.274808   -1.536547
  17 C     6.0000    0    12.011    9.315084    1.486466   -2.272586
  18 C     6.0000    0    12.011   11.507417    1.344339   -0.800926
  19 O     8.0000    0    15.999   13.530384    2.644342   -1.682693
  20 C     6.0000    0    12.011   15.801051    2.622782   -0.271226
  21 C     6.0000    0    12.011   11.475656   -0.090285    1.406547
  22 C     6.0000    0    12.011    9.287219   -1.319992    2.114314
  23 H     1.0000    0     1.008  -10.821834   -2.521907   -2.957013
  24 H     1.0000    0     1.008  -12.595882    0.162447   -3.844024
  25 H     1.0000    0     1.008   -9.445336   -0.171616   -4.873975
  26 H     1.0000    0     1.008  -12.061830   -1.539841    1.549017
  27 H     1.0000    0     1.008  -11.253100    1.414849    2.908279
  28 H     1.0000    0     1.008  -13.611285    1.231920    0.569511
  29 H     1.0000    0     1.008   -8.443344    4.153558   -3.015818
  30 H     1.0000    0     1.008  -11.549553    4.477239   -1.870561
  31 H     1.0000    0     1.008   -8.964224    4.728304    0.224262
  32 H     1.0000    0     1.008   -8.243534   -1.707040    3.391829
  33 H     1.0000    0     1.008   -4.020545   -3.211788    4.388207
  34 H     1.0000    0     1.008   -1.297620   -0.272500   -2.613876
  35 H     1.0000    0     1.008   -5.502750    1.219187   -3.627047
  36 H     1.0000    0     1.008    2.049387   -5.052182    3.635735
  37 H     1.0000    0     1.008    2.244889    0.025476   -0.365302
  38 H     1.0000    0     1.008    5.491243    0.389206   -2.733604
  39 H     1.0000    0     1.008    9.384390    2.573044   -3.995941
  40 H     1.0000    0     1.008   15.511161    3.395608    1.622889
  41 H     1.0000    0     1.008   17.101566    3.825895   -1.315229
  42 H     1.0000    0     1.008   16.581007    0.714144   -0.135204
  43 H     1.0000    0     1.008   13.134388   -0.262098    2.576519
  44 H     1.0000    0     1.008    9.252445   -2.441583    3.820533

--------------------------------
INTERNAL COORDINATES (ANGSTROEM)
--------------------------------
 C      0   0   0     0.000000000000     0.00000000     0.00000000
 C      1   0   0     1.536445961378     0.00000000     0.00000000
 C      2   1   0     1.531821953129   108.33854113     0.00000000
 C      2   1   3     1.536407980019   109.77587504   242.19986699
 C      2   1   3     1.519886881800   108.73974736   122.78114931
 C      5   2   1     1.391286410581   123.02957106   243.61294982
 C      6   5   2     1.381667283648   121.29393380   179.82237052
 C      7   6   5     1.393683353724   120.94507064     0.86004095
 C      8   7   6     1.394972765894   118.13519100   358.53629614
 C      9   8   7     1.378806206148   120.43744590     0.77079297
 C      8   7   6     1.466119922230   119.51456517   179.03017916
 O     11   8   7     1.327255550316   115.23057952    25.35050996
 C     11   8   7     1.370248061201   122.78971450   206.87625324
 C     13  11   8     1.434242720930   121.46704675   177.81851537
 O     14  13  11     1.250742843365   121.75901879     0.51171867
 C     14  13  11     1.477993266595   118.74596414   182.52016186
 C     16  14  13     1.397246690542   123.66556670   335.41286738
 C     17  16  14     1.375526695435   120.50885767   179.76178768
 C     18  17  16     1.399302152257   120.81515018   359.49670487
 O     19  18  17     1.355345810659   115.84622167   181.07395050
 C     20  19  18     1.414857328700   119.00878875   178.94221937
 C     19  18  17     1.393263339105   119.07157285     1.32520737
 C     22  19  18     1.380166035504   119.64023079   359.35874573
 H      1   2   3     1.088109990733   110.24940688   297.16711026
 H      1   2   3     1.087646378454   109.99234066    56.82420963
 H      1   2   3     1.086401585004   111.32515572   176.95383054
 H      3   2   1     1.087320586178   111.20432649    58.16670799
 H      3   2   1     1.087564642409   111.01887031   180.04528013
 H      3   2   1     1.087949836093   109.35372922   299.13235659
 H      4   2   1     1.086085112018   111.57698145   303.25742457
 H      4   2   1     1.087661461510   109.91977656    63.22968669
 H      4   2   1     1.088091852053   110.24099709   182.79579721
 H      6   5   2     1.077319951110   120.63118029   359.88581418
 H      7   6   5     1.079743941952   120.09908326   180.01128023
 H      9   8   7     1.078935107431   120.03858290   182.48396886
 H     10   9   8     1.079138476776   118.26404232   180.71064365
 H     12  11   8     1.002019356333   107.11940238   181.82103901
 H     13  11   8     1.073435697857   119.41191177     1.90284053
 H     17  16  14     1.078331606735   120.50863528   357.93641990
 H     18  17  16     1.078718681537   121.08770618   179.54933708
 H     21  20  19     1.093358590976   111.20968877   300.35501258
 H     21  20  19     1.088197434545   105.32921723   181.71411695
 H     21  20  19     1.093456359545   111.26988082    63.05583334
 H     22  19  18     1.077983006164   121.17605061   179.26463203
 H     23  22  19     1.080656562881   119.99797292   179.76207401

---------------------------
INTERNAL COORDINATES (A.U.)
---------------------------
 C      0   0   0     0.000000000000     0.00000000     0.00000000
 C      1   0   0     2.903462086573     0.00000000     0.00000000
 C      2   1   0     2.894723977342   108.33854113     0.00000000
 C      2   1   3     2.903390312206   109.77587504   242.19986699
 C      2   1   3     2.872169961141   108.73974736   122.78114931
 C      5   2   1     2.629150289845   123.02957106   243.61294982
 C      6   5   2     2.610972774294   121.29393380   179.82237052
 C      7   6   5     2.633679855943   120.94507064     0.86004095
 C      8   7   6     2.636116491819   118.13519100   358.53629614
 C      9   8   7     2.605566121371   120.43744590     0.77079297
 C      8   7   6     2.770565132500   119.51456517   179.03017916
 O     11   8   7     2.508149499824   115.23057952    25.35050996
 C     11   8   7     2.589393571206   122.78971450   206.87625324
 C     13  11   8     2.710325952128   121.46704675   177.81851537
 O     14  13  11     2.363561437922   121.75901879     0.51171867
 C     14  13  11     2.793002501645   118.74596414   182.52016186
 C     16  14  13     2.640413586653   123.66556670   335.41286738
 C     17  16  14     2.599368744270   120.50885767   179.76178768
 C     18  17  16     2.644297846373   120.81515018   359.49670487
 O     19  18  17     2.561232398904   115.84622167   181.07395050
 C     20  19  18     2.673692869815   119.00878875   178.94221937
 C     19  18  17     2.632886143341   119.07157285     1.32520737
 C     22  19  18     2.608135826443   119.64023079   359.35874573
 H      1   2   3     2.056229886068   110.24940688   297.16711026
 H      1   2   3     2.055353785829   109.99234066    56.82420963
 H      1   2   3     2.053001467115   111.32515572   176.95383054
 H      3   2   1     2.054738127650   111.20432649    58.16670799
 H      3   2   1     2.055199327090   111.01887031   180.04528013
 H      3   2   1     2.055927237661   109.35372922   299.13235659
 H      4   2   1     2.052403419843   111.57698145   303.25742457
 H      4   2   1     2.055382288675   109.91977656    63.22968669
 H      4   2   1     2.056195608932   110.24099709   182.79579721
 H      6   5   2     2.035839666208   120.63118029   359.88581418
 H      7   6   5     2.040420345051   120.09908326   180.01128023
 H      9   8   7     2.038891869317   120.03858290   182.48396886
 H     10   9   8     2.039276181683   118.26404232   180.71064365
 H     12  11   8     1.893542164357   107.11940238   181.82103901
 H     13  11   8     2.028499491325   119.41191177     1.90284053
 H     17  16  14     2.037751418280   120.50863528   357.93641990
 H     18  17  16     2.038482883650   121.08770618   179.54933708
 H     21  20  19     2.066148303114   111.20968877   300.35501258
 H     21  20  19     2.056395130926   105.32921723   181.71411695
 H     21  20  19     2.066333058935   111.26988082    63.05583334
 H     22  19  18     2.037092658671   121.17605061   179.26463203
 H     23  22  19     2.042144948671   119.99797292   179.76207401

---------------------
BASIS SET INFORMATION
---------------------
There are 3 groups of distinct atoms

 Group   1 Type C   : 11s5p1d contracted to 4s3p1d pattern {6311/311/1}
 Group   2 Type O   : 11s5p1d contracted to 4s3p1d pattern {6311/311/1}
 Group   3 Type H   : 4s contracted to 2s pattern {31}

Atom   0C    basis set group =>   1
Atom   1C    basis set group =>   1
Atom   2C    basis set group =>   1
Atom   3C    basis set group =>   1
Atom   4C    basis set group =>   1
Atom   5C    basis set group =>   1
Atom   6C    basis set group =>   1
Atom   7C    basis set group =>   1
Atom   8C    basis set group =>   1
Atom   9C    basis set group =>   1
Atom  10C    basis set group =>   1
Atom  11O    basis set group =>   2
Atom  12C    basis set group =>   1
Atom  13C    basis set group =>   1
Atom  14O    basis set group =>   2
Atom  15C    basis set group =>   1
Atom  16C    basis set group =>   1
Atom  17C    basis set group =>   1
Atom  18C    basis set group =>   1
Atom  19O    basis set group =>   2
Atom  20C    basis set group =>   1
Atom  21C    basis set group =>   1
Atom  22C    basis set group =>   1
Atom  23H    basis set group =>   3
Atom  24H    basis set group =>   3
Atom  25H    basis set group =>   3
Atom  26H    basis set group =>   3
Atom  27H    basis set group =>   3
Atom  28H    basis set group =>   3
Atom  29H    basis set group =>   3
Atom  30H    basis set group =>   3
Atom  31H    basis set group =>   3
Atom  32H    basis set group =>   3
Atom  33H    basis set group =>   3
Atom  34H    basis set group =>   3
Atom  35H    basis set group =>   3
Atom  36H    basis set group =>   3
Atom  37H    basis set group =>   3
Atom  38H    basis set group =>   3
Atom  39H    basis set group =>   3
Atom  40H    basis set group =>   3
Atom  41H    basis set group =>   3
Atom  42H    basis set group =>   3
Atom  43H    basis set group =>   3
Atom  44H    basis set group =>   3
---------------------------------
AUXILIARY/J BASIS SET INFORMATION
---------------------------------
There are 3 groups of distinct atoms

 Group   1 Type C   : 12s5p4d2f1g contracted to 6s4p3d1f1g pattern {711111/2111/211/2/1}
 Group   2 Type O   : 12s5p4d2f1g contracted to 6s4p3d1f1g pattern {711111/2111/211/2/1}
 Group   3 Type H   : 5s2p1d contracted to 3s1p1d pattern {311/2/1}

Atom   0C    basis set group =>   1
Atom   1C    basis set group =>   1
Atom   2C    basis set group =>   1
Atom   3C    basis set group =>   1
Atom   4C    basis set group =>   1
Atom   5C    basis set group =>   1
Atom   6C    basis set group =>   1
Atom   7C    basis set group =>   1
Atom   8C    basis set group =>   1
Atom   9C    basis set group =>   1
Atom  10C    basis set group =>   1
Atom  11O    basis set group =>   2
Atom  12C    basis set group =>   1
Atom  13C    basis set group =>   1
Atom  14O    basis set group =>   2
Atom  15C    basis set group =>   1
Atom  16C    basis set group =>   1
Atom  17C    basis set group =>   1
Atom  18C    basis set group =>   1
Atom  19O    basis set group =>   2
Atom  20C    basis set group =>   1
Atom  21C    basis set group =>   1
Atom  22C    basis set group =>   1
Atom  23H    basis set group =>   3
Atom  24H    basis set group =>   3
Atom  25H    basis set group =>   3
Atom  26H    basis set group =>   3
Atom  27H    basis set group =>   3
Atom  28H    basis set group =>   3
Atom  29H    basis set group =>   3
Atom  30H    basis set group =>   3
Atom  31H    basis set group =>   3
Atom  32H    basis set group =>   3
Atom  33H    basis set group =>   3
Atom  34H    basis set group =>   3
Atom  35H    basis set group =>   3
Atom  36H    basis set group =>   3
Atom  37H    basis set group =>   3
Atom  38H    basis set group =>   3
Atom  39H    basis set group =>   3
Atom  40H    basis set group =>   3
Atom  41H    basis set group =>   3
Atom  42H    basis set group =>   3
Atom  43H    basis set group =>   3
Atom  44H    basis set group =>   3


           ************************************************************
           *        Program running with 4 parallel MPI-processes     *
           *              working on a common directory               *
           ************************************************************
------------------------------------------------------------------------------
                             ORCA STARTUP CALCULATIONS
                           -- RI-GTO INTEGRALS CHOSEN --
------------------------------------------------------------------------------
------------------------------------------------------------------------------
                   ___                                                        
                  /   \      - P O W E R E D   B Y -                         
                 /     \                                                     
                 |  |  |   _    _      __       _____    __    __             
                 |  |  |  | |  | |    /  \     |  _  \  |  |  /  |          
                  \  \/   | |  | |   /    \    | | | |  |  | /  /          
                 / \  \   | |__| |  /  /\  \   | |_| |  |  |/  /          
                |  |  |   |  __  | /  /__\  \  |    /   |      \           
                |  |  |   | |  | | |   __   |  |    \   |  |\   \          
                \     /   | |  | | |  |  |  |  | |\  \  |  | \   \       
                 \___/    |_|  |_| |__|  |__|  |_| \__\ |__|  \__/        
                                                                              
                      - O R C A' S   B I G   F R I E N D -                    
                                      &                                       
                       - I N T E G R A L  F E E D E R -                       
                                                                              
 v1 FN, 2020, v2 2021, v3 2022-2024                                           
------------------------------------------------------------------------------


----------------------
SHARK INTEGRAL PACKAGE
----------------------

Number of atoms                             ...     45
Number of basis functions                   ...    458
Number of shells                            ...    228
Maximum angular momentum                    ...      2
Integral batch strategy                     ... SHARK/LIBINT Hybrid
RI-J (if used) integral strategy            ... SPLIT-RIJ (Revised 2003 algorithm where possible)
Printlevel                                  ...      1
Contraction scheme used                     ... SEGMENTED contraction
Prescreening option                         ... SCHWARTZ
   Thresh                                   ... 2.500e-11
   Tcut                                     ... 2.500e-12
   Tpresel                                  ... 2.500e-12 
Coulomb Range Separation                    ... NOT USED
Exchange Range Separation                   ... NOT USED
Multipole approximations                    ... NOT USED
Finite Nucleus Model                        ... NOT USED
CABS basis                                  ... NOT available
Auxiliary Coulomb fitting basis             ... AVAILABLE
   # of basis functions in Aux-J            ...   1369
   # of shells in Aux-J                     ...    455
   Maximum angular momentum in Aux-J        ...      4
Auxiliary J/K fitting basis                 ... NOT available
Auxiliary Correlation fitting basis         ... NOT available
Auxiliary 'external' fitting basis          ... NOT available

Checking pre-screening integrals            ... done (  0.0 sec) Dimension = 228
   => SHARK Basis and OBASIS are compatible. Storing Pre-screening
Shell pair information
Shell pair cut-off parameter TPreSel        ...   2.5e-12
Total number of shell pairs                 ...     26106
Shell pairs after pre-screening             ...     18846
Total number of primitive shell pairs       ...    115509
Primitive shell pairs kept                  ...     51394
          la=0 lb=0:   6263 shell pairs
          la=1 lb=0:   7335 shell pairs
          la=1 lb=1:   2095 shell pairs
          la=2 lb=0:   1835 shell pairs
          la=2 lb=1:   1181 shell pairs
          la=2 lb=2:    137 shell pairs

Checking whether 4 symmetric matrices of dimension 458 fit in memory
:Max Core in MB      =   2500.00
 MB in use           =     22.52
 MB left             =   2477.48
 MB needed           =      3.21
 Data fit in memory  = YES
Calculating RI/J V-Matrix + Cholesky decomp.... done (  0.1 sec)
Calculating Nuclear repulsion               ... done (  0.0 sec) ENN=   1742.880480141763 Eh

Diagonalization of the overlap matrix:
Smallest eigenvalue                        ... 1.808e-07
Time for diagonalization                   ...    0.028 sec
Threshold for overlap eigenvalues          ... 1.000e-07
Number of eigenvalues below threshold      ... 0

IMPORTANT:
Smallest eigenvalue of S below the DiffSThresh (1.000e-06) while
Thresh>1e-12 and/or TCut>1e-13! In order to avoid SCF convergence issues,
Thresh will be set to at least 1e-12 and TCut to at least 1e-13.
This can be turned off by adding %SCF DiffSThresh -1 END to the input.

Time for construction of square roots      ...    0.020 sec
Total time needed                          ...    0.051 sec

-------------------
DFT GRID GENERATION
-------------------

General Integration Accuracy     IntAcc      ... 4.388
Radial Grid Type                 RadialGrid  ... OptM3 with GC (2021)
Angular Grid (max. ang.)         AngularGrid ... 4 (Lebedev-302)
Angular grid pruning method      GridPruning ... 4 (adaptive)
Weight generation scheme         WeightScheme... mBecke (2022)
Basis function cutoff            BFCut       ... 1.0000e-11
Integration weight cutoff        WCut        ... 1.0000e-14
Partially contracted basis set               ... off
Rotationally invariant grid construction     ... off
Angular grids for H and He will be reduced by one unit
Diffuse basis detected: some atoms will have their outermost
                        angular grid increased by 1.

Total number of grid points                  ...   213044
Total number of batches                      ...     3348
Average number of points per batch           ...       63
Average number of grid points per atom       ...     4734

--------------------
COSX GRID GENERATION
--------------------

GRIDX 1
-------
General Integration Accuracy     IntAcc      ... 3.816
Radial Grid Type                 RadialGrid  ... OptM3 with GC (2021)
Angular Grid (max. ang.)         AngularGrid ... 1 (Lebedev-50)
Angular grid pruning method      GridPruning ... 4 (adaptive)
Weight generation scheme         WeightScheme... mBecke (2022)
Basis function cutoff            BFCut       ... 1.0000e-11
Integration weight cutoff        WCut        ... 1.0000e-14
Partially contracted basis set               ... on
Rotationally invariant grid construction     ... off
Angular grids for H and He will be reduced by one unit
Diffuse basis detected: some atoms will have their outermost
                        angular grid increased by 1.

Total number of grid points                  ...    27120
Total number of batches                      ...      238
Average number of points per batch           ...      113
Average number of grid points per atom       ...      603
UseSFitting                                  ... on

GRIDX 2
-------
General Integration Accuracy     IntAcc      ... 4.020
Radial Grid Type                 RadialGrid  ... OptM3 with GC (2021)
Angular Grid (max. ang.)         AngularGrid ... 2 (Lebedev-110)
Angular grid pruning method      GridPruning ... 4 (adaptive)
Weight generation scheme         WeightScheme... mBecke (2022)
Basis function cutoff            BFCut       ... 1.0000e-11
Integration weight cutoff        WCut        ... 1.0000e-14
Partially contracted basis set               ... on
Rotationally invariant grid construction     ... off
Angular grids for H and He will be reduced by one unit
Diffuse basis detected: some atoms will have their outermost
                        angular grid increased by 1.

Total number of grid points                  ...    62601
Total number of batches                      ...      513
Average number of points per batch           ...      122
Average number of grid points per atom       ...     1391
UseSFitting                                  ... on

GRIDX 3
-------
General Integration Accuracy     IntAcc      ... 4.338
Radial Grid Type                 RadialGrid  ... OptM3 with GC (2021)
Angular Grid (max. ang.)         AngularGrid ... 3 (Lebedev-194)
Angular grid pruning method      GridPruning ... 4 (adaptive)
Weight generation scheme         WeightScheme... mBecke (2022)
Basis function cutoff            BFCut       ... 1.0000e-11
Integration weight cutoff        WCut        ... 1.0000e-14
Partially contracted basis set               ... on
Rotationally invariant grid construction     ... off
Angular grids for H and He will be reduced by one unit
Diffuse basis detected: some atoms will have their outermost
                        angular grid increased by 1.

Total number of grid points                  ...   135066
Total number of batches                      ...     1079
Average number of points per batch           ...      125
Average number of grid points per atom       ...     3001
UseSFitting                                  ... on
Grids setup in   5.6 sec
Initializing property integral containers    ... done (  0.1 sec)

SHARK setup successfully completed in   6.4 seconds

Maximum memory used throughout the entire STARTUP-calculation: 66.8 MB


           ************************************************************
           *        Program running with 4 parallel MPI-processes     *
           *              working on a common directory               *
           ************************************************************
-------------------------------------------------------------------------------
                                 ORCA GUESS
                   Start orbitals & Density for SCF / CASSCF
-------------------------------------------------------------------------------

------------
SCF SETTINGS
------------
Hamiltonian:
 Density Functional     Method          .... DFT(GTOs)
 Exchange Functional    Exchange        .... B88
   X-Alpha parameter    XAlpha          ....  0.666667
   Becke's b parameter  XBeta           ....  0.004200
 Correlation Functional Correlation     .... LYP
 LDA part of GGA corr.  LDAOpt          .... VWN-5
 Gradients option       PostSCFGGA      .... off
 Hybrid DFT is turned on
   Fraction HF Exchange ScalHFX         ....  0.200000
   Scaling of DF-GGA-X  ScalDFX         ....  0.720000
   Scaling of DF-GGA-C  ScalDFC         ....  0.810000
   Scaling of DF-LDA-C  ScalLDAC        ....  1.000000
   Perturbative correction              ....  0.000000
   NL short-range parameter             ....  4.800000
 RI-approximation to the Coulomb term is turned on
   Number of AuxJ basis functions       .... 1369
   RIJ-COSX (HFX calculated with COS-X)).... on


General Settings:
 Integral files         IntName         .... td
 Hartree-Fock type      HFTyp           .... RHF
 Total Charge           Charge          ....    0
 Multiplicity           Mult            ....    1
 Number of Electrons    NEL             ....  166
 Basis Dimension        Dim             ....  458
 Nuclear Repulsion      ENuc            ....   1742.8804801418 Eh

Convergence Acceleration:
 AO-DIIS                CNVDIIS         .... on
   Start iteration      DIISMaxIt       ....    12
   Startup error        DIISStart       ....  0.200000
   # of expansion vecs  DIISMaxEq       ....     5
   Bias factor          DIISBfac        ....   1.050
   Max. coefficient     DIISMaxC        ....  10.000
 MO-DIIS                CNVKDIIS        .... off
 Trust-Rad. Augm. Hess. CNVTRAH         .... auto
   Auto Start mean grad. ratio tolernc. ....  1.125000
   Auto Start start iteration           ....    50
   Auto Start num. interpolation iter.  ....    10
   Max. Number of Micro iterations      ....    24
   Max. Number of Macro iterations      .... Maxiter - #DIIS iter
   Number of Davidson start vectors     ....     2
   Converg. threshold    (grad. norm)   ....   1.000e-05
   Grad. Scal. Fac. for Micro threshold ....   0.100
   Minimum threshold for Micro iter.    ....   1.000e-02
   NR start threshold (gradient norm)   ....   1.000e-04
   Initial trust radius                 ....   0.400
   Minimum AH scaling param. (alpha)    ....   1.000
   Maximum AH scaling param. (alpha)    .... 1000.000
   Quad. conv. algorithm                .... NR
   White noise on init. David. guess    .... on
   Maximum white noise                  ....   0.010
   Pseudo random numbers                .... off
   Inactive MOs                         .... canonical
   Orbital update algorithm             .... Taylor
   Preconditioner                       .... Diag
   Full preconditioner red. dimension   ....   250
 SOSCF                 CNVSOSCF           .... on
   Start iteration     SOSCFMaxIt         ....   150
   Startup grad/error  SOSCFStart         ....  0.003300
   Hessian update      SOSCFHessUp        .... L-BFGS
   Autom. constraints  SOSCFAutoConstrain .... off
 Level Shifting         CNVShift        .... on
   Level shift para.    LevelShift      ....    0.2500
   Turn off err/grad.   ShiftErr        ....    0.0010
 Zerner damping         CNVZerner       .... off
 Static damping         CNVDamp         .... on
   Fraction old density DampFac         ....    0.7000
   Max. Damping (<1)    DampMax         ....    0.9800
   Min. Damping (>=0)   DampMin         ....    0.0000
   Turn off err/grad.   DampErr         ....    0.1000

SCF Procedure:
 Maximum # iterations   MaxIter         ....   300
 SCF integral mode      SCFMode         .... Direct
   Integral package                     .... SHARK and LIBINT hybrid scheme
 Reset frequency        DirectResetFreq ....    20
 Integral Threshold     Thresh          ....  1.000e-12 Eh
 Primitive CutOff       TCut            ....  1.000e-13 Eh

Convergence Tolerance:
 Convergence Check Mode ConvCheckMode   .... Total+1el-Energy
 Convergence forced     ConvForced      .... 1
 Energy Change          TolE            ....  1.000e-08 Eh
 1-El. energy change                    ....  1.000e-05 Eh
 Orbital Gradient       TolG            ....  1.000e-05
 Orbital Rotation angle TolX            ....  1.000e-05
 DIIS Error             TolErr          ....  5.000e-07

------------------------------
INITIAL GUESS: MODEL POTENTIAL
------------------------------
Loading Hartree-Fock densities                     ... done
Calculating cut-offs                               ... done
Initializing the effective Hamiltonian             ... done
Setting up the integral package (SHARK)            ... done
Starting the Coulomb interaction                   ... done (   0.8 sec)
Making the grid                                    ... done (   0.8 sec)
Mapping shells                                     ... done
Starting the XC term evaluation                    ... done (   1.1 sec)
  promolecular density results
     # of electrons  =    165.992202007
     EX              =   -134.073002657
     EC              =     -5.606966576
     EX+EC           =   -139.679969234
Transforming the Hamiltonian                       ... done (   0.0 sec)
Diagonalizing the Hamiltonian                      ... done (   0.1 sec)
Back transforming the eigenvectors                 ... done (   0.0 sec)
Now organizing SCF variables                       ... done
                      ------------------
                      INITIAL GUESS DONE (   2.9 sec)
                      ------------------
             **** ENERGY FILE WAS UPDATED (td.en.tmp) ****
Finished Guess after   3.3 sec
Maximum memory used throughout the entire GUESS-calculation: 30.1 MB


           ************************************************************
           *        Program running with 4 parallel MPI-processes     *
           *              working on a common directory               *
           ************************************************************

-------------------------------------------------------------------------------------------
                                      ORCA LEAN-SCF
                              memory conserving SCF solver
-------------------------------------------------------------------------------------------

--------------------
CPCM SOLVATION MODEL
--------------------
CPCM parameters:
  Epsilon                                         ...      25.4510
  Refrac                                          ...       1.3611
  Rsolv                                           ...       1.3000
  Surface type                                    ... GAUSSIAN VDW
  Discretization scheme                           ... Constant charge density
    Threshold for H atoms                         ...       5.0000 (charges/Ang^2)
    Threshold for non-H atoms                     ...       5.0000 (charges/Ang^2)
  Epsilon function type                           ...         CPCM
Solvent:                                          ... ETHANOL
Radii:
  Scheme                                          ... Element-dependent radii
  Radius for C  used is    3.8550 Bohr (=   2.0400 Ang.)
  Radius for O  used is    3.4469 Bohr (=   1.8240 Ang.)
  Radius for H  used is    2.4944 Bohr (=   1.3200 Ang.)
Calculating surface                               ...        done! (  0.0s)
Cavity surface points                             ...         3782
Cavity Volume                                     ...    2609.7300
Cavity Surface-area                               ...    1337.3501
Calculating surface distance matrix               ...        done! (  0.2s)
Performing Cholesky decomposition & store         ...        done! (  0.7s)
Overall time for CPCM initialization              ...                 0.9s

----------------------------------------D-I-I-S--------------------------------------------
Iteration    Energy (Eh)           Delta-E    RMSDP     MaxDP     DIISErr   Damp  Time(sec)
-------------------------------------------------------------------------------------------
               ***  Starting incremental Fock matrix formation  ***
    1    -999.9166267020764280     0.00e+00  1.45e-01  8.41e+00  2.41e-01  0.700  31.6
    2    -1000.1699619277483180    -2.53e-01  1.50e-01  9.58e+00  9.44e-02  0.700  15.0
                               ***Turning on AO-DIIS***
    3    -1000.2773927884782097    -1.07e-01  4.46e-02  2.37e+00  3.79e-02  0.700  14.9
    4    -1000.3401284041065082    -6.27e-02  1.03e-01  4.94e+00  1.99e-02  0.000  15.2
    5    -1000.4749996662553713    -1.35e-01  4.07e-02  1.86e+00  5.00e-03  0.000  16.2
                              *** Initializing SOSCF ***
---------------------------------------S-O-S-C-F--------------------------------------
Iteration    Energy (Eh)           Delta-E    RMSDP     MaxDP     MaxGrad    Time(sec)
--------------------------------------------------------------------------------------
    6    -1000.4756277209976361    -6.28e-04  1.42e-02  7.48e-01  1.15e-03    14.1
               *** Restarting incremental Fock matrix formation ***
    7    -1000.4756845701808743    -5.68e-05  3.49e-02  1.92e+00  1.84e-04    29.5
    8    -1000.4756857638135443    -1.19e-06  7.65e-03  4.31e-01  3.25e-04    23.9
    9    -1000.4756910374612744    -5.27e-06  7.92e-03  4.34e-01  7.97e-05    21.1
   10    -1000.4756911795016094    -1.42e-07  1.58e-03  5.64e-02  3.66e-05    22.9
   11    -1000.4756914976837834    -3.18e-07  4.10e-03  2.35e-01  7.63e-06    18.9
   12    -1000.4756915024177033    -4.73e-09  2.85e-03  2.18e-01  9.36e-06    18.9
                 **** Energy Check signals convergence ****

               *****************************************************
               *                     SUCCESS                       *
               *           SCF CONVERGED AFTER  12 CYCLES          *
               *****************************************************

Recomputing exchange energy using gridx3       ... done (   45.604 sec)
Old exchange energy                            :    -27.275333912 Eh
New exchange energy                            :    -27.275366871 Eh
Exchange energy change after final integration :     -0.000032959 Eh
Total energy after final integration           :  -1000.475724467 Eh
             **** ENERGY FILE WAS UPDATED (td.en.tmp) ****

----------------
TOTAL SCF ENERGY
----------------

Total Energy       :      -1000.47572446665652 Eh          -27224.32852 eV

Components:
Nuclear Repulsion  :       1742.88048014176275 Eh           47426.18897 eV
Electronic Energy  :      -2743.33694625047201 Eh          -74649.99344 eV
One Electron Energy:      -4819.26343394295145 Eh         -131138.82501 eV
Two Electron Energy:       2075.92648769247944 Eh           56488.83157 eV
CPCM Dielectric    :         -0.01922539855504 Eh              -0.52315 eV

Virial components:
Potential Energy   :      -1995.70404349522687 Eh          -54305.86788 eV
Kinetic Energy     :        995.22831902857024 Eh           27081.53936 eV
Virial Ratio       :          2.00527256443346

DFT components:
N(Alpha)           :       83.000021534791 electrons
N(Beta)            :       83.000021534791 electrons
N(Total)           :      166.000043069582 electrons
E(X)               :     -108.296160047685 Eh       
E(C)               :       -6.604029424025 Eh       
E(XC)              :     -114.900189471711 Eh       

CPCM Solvation Model Properties:
Surface-charge          :         -0.04447703871475
Corrected charge        :         -0.00000000000000
Outlying charge corr.   :          0.00009329099496 Eh               0.00254 eV
Free-energy (cav+disp)  :  This term is not implemented in the current solvation scheme

---------------
SCF CONVERGENCE
---------------

  Last Energy change         ...    4.7339e-09  Tolerance :   1.0000e-08
  Last MAX-Density change    ...    2.1790e-01  Tolerance :   1.0000e-07
  Last RMS-Density change    ...    2.8459e-03  Tolerance :   5.0000e-09
  Last DIIS Error            ...    1.1510e-03  Tolerance :   5.0000e-07
  Last Orbital Gradient      ...    9.3566e-06  Tolerance :   1.0000e-05
  Last Orbital Rotation      ...    1.3237e-05  Tolerance :   1.0000e-05


----------------
ORBITAL ENERGIES
----------------

  NO   OCC          E(Eh)            E(eV) 
   0   2.0000     -19.189640      -522.1767 
   1   2.0000     -19.187746      -522.1251 
   2   2.0000     -19.141058      -520.8547 
   3   2.0000     -10.277494      -279.6648 
   4   2.0000     -10.273500      -279.5562 
   5   2.0000     -10.258443      -279.1464 
   6   2.0000     -10.226505      -278.2773 
   7   2.0000     -10.200326      -277.5650 
   8   2.0000     -10.196273      -277.4547 
   9   2.0000     -10.196033      -277.4482 
  10   2.0000     -10.194118      -277.3960 
  11   2.0000     -10.193657      -277.3835 
  12   2.0000     -10.192017      -277.3389 
  13   2.0000     -10.192012      -277.3387 
  14   2.0000     -10.189667      -277.2749 
  15   2.0000     -10.188981      -277.2563 
  16   2.0000     -10.187144      -277.2063 
  17   2.0000     -10.184056      -277.1223 
  18   2.0000     -10.183468      -277.1063 
  19   2.0000     -10.176736      -276.9231 
  20   2.0000     -10.159749      -276.4608 
  21   2.0000     -10.159435      -276.4523 
  22   2.0000     -10.158112      -276.4163 
  23   2.0000      -1.088601       -29.6223 
  24   2.0000      -1.081459       -29.4280 
  25   2.0000      -1.036930       -28.2163 
  26   2.0000      -0.876441       -23.8492 
  27   2.0000      -0.869643       -23.6642 
  28   2.0000      -0.827753       -22.5243 
  29   2.0000      -0.794687       -21.6245 
  30   2.0000      -0.773777       -21.0555 
  31   2.0000      -0.763190       -20.7675 
  32   2.0000      -0.756641       -20.5893 
  33   2.0000      -0.741236       -20.1701 
  34   2.0000      -0.708556       -19.2808 
  35   2.0000      -0.684918       -18.6376 
  36   2.0000      -0.684324       -18.6214 
  37   2.0000      -0.665653       -18.1133 
  38   2.0000      -0.630802       -17.1650 
  39   2.0000      -0.619227       -16.8500 
  40   2.0000      -0.610408       -16.6100 
  41   2.0000      -0.593839       -16.1592 
  42   2.0000      -0.572293       -15.5729 
  43   2.0000      -0.553203       -15.0534 
  44   2.0000      -0.543506       -14.7896 
  45   2.0000      -0.524186       -14.2638 
  46   2.0000      -0.505157       -13.7460 
  47   2.0000      -0.490318       -13.3422 
  48   2.0000      -0.482598       -13.1322 
  49   2.0000      -0.473882       -12.8950 
  50   2.0000      -0.466243       -12.6871 
  51   2.0000      -0.461631       -12.5616 
  52   2.0000      -0.454395       -12.3647 
  53   2.0000      -0.452964       -12.3258 
  54   2.0000      -0.439115       -11.9489 
  55   2.0000      -0.437924       -11.9165 
  56   2.0000      -0.434969       -11.8361 
  57   2.0000      -0.431808       -11.7501 
  58   2.0000      -0.429103       -11.6765 
  59   2.0000      -0.418736       -11.3944 
  60   2.0000      -0.418159       -11.3787 
  61   2.0000      -0.401450       -10.9240 
  62   2.0000      -0.395357       -10.7582 
  63   2.0000      -0.393972       -10.7205 
  64   2.0000      -0.393618       -10.7109 
  65   2.0000      -0.379333       -10.3222 
  66   2.0000      -0.375763       -10.2250 
  67   2.0000      -0.373033       -10.1507 
  68   2.0000      -0.365232        -9.9385 
  69   2.0000      -0.363760        -9.8984 
  70   2.0000      -0.361905        -9.8479 
  71   2.0000      -0.352502        -9.5921 
  72   2.0000      -0.333947        -9.0871 
  73   2.0000      -0.329931        -8.9779 
  74   2.0000      -0.327596        -8.9143 
  75   2.0000      -0.325034        -8.8446 
  76   2.0000      -0.314622        -8.5613 
  77   2.0000      -0.272815        -7.4237 
  78   2.0000      -0.270134        -7.3507 
  79   2.0000      -0.265410        -7.2222 
  80   2.0000      -0.260807        -7.0969 
  81   2.0000      -0.240925        -6.5559 
  82   2.0000      -0.226611        -6.1664 
  83   0.0000      -0.076952        -2.0940 
  84   0.0000      -0.024107        -0.6560 
  85   0.0000      -0.015891        -0.4324 
  86   0.0000      -0.012621        -0.3434 
  87   0.0000       0.004468         0.1216 
  88   0.0000       0.012606         0.3430 
  89   0.0000       0.020235         0.5506 
  90   0.0000       0.023333         0.6349 
  91   0.0000       0.024975         0.6796 
  92   0.0000       0.029990         0.8161 
  93   0.0000       0.034378         0.9355 
*Only the first 10 virtual orbitals were printed.

                    ********************************
                    * MULLIKEN POPULATION ANALYSIS *
                    ********************************

-----------------------
MULLIKEN ATOMIC CHARGES
-----------------------
   0 C :   -0.679187
   1 C :    0.752285
   2 C :   -0.585207
   3 C :   -0.669163
   4 C :   -0.168260
   5 C :   -0.554156
   6 C :   -0.337603
   7 C :    2.031430
   8 C :   -0.242217
   9 C :   -0.422375
  10 C :   -1.833733
  11 O :   -0.663645
  12 C :    0.133962
  13 C :   -1.401990
  14 O :   -0.621599
  15 C :    1.918727
  16 C :   -0.202909
  17 C :   -0.923495
  18 C :    0.207854
  19 O :   -0.416244
  20 C :   -0.360267
  21 C :    0.545367
  22 C :   -0.688460
  23 H :    0.225880
  24 H :    0.220496
  25 H :    0.225691
  26 H :    0.227355
  27 H :    0.228442
  28 H :    0.221563
  29 H :    0.223350
  30 H :    0.220549
  31 H :    0.227738
  32 H :    0.203140
  33 H :    0.215841
  34 H :    0.211709
  35 H :    0.206868
  36 H :    0.569821
  37 H :    0.213185
  38 H :    0.215056
  39 H :    0.213895
  40 H :    0.224514
  41 H :    0.224015
  42 H :    0.225906
  43 H :    0.216015
  44 H :    0.219855
Sum of atomic charges:   -0.0000000

--------------------------------
MULLIKEN REDUCED ORBITAL CHARGES
--------------------------------
  0 C s       :     3.536186  s :     3.536186
      pz      :     0.963896  p :     3.107710
      px      :     1.090339
      py      :     1.053475
      dz2     :     0.007596  d :     0.035291
      dxz     :     0.009743
      dyz     :     0.004229
      dx2y2   :     0.010781
      dxy     :     0.002942

  1 C s       :     2.557937  s :     2.557937
      pz      :     0.932345  p :     2.639769
      px      :     0.807405
      py      :     0.900019
      dz2     :     0.009553  d :     0.050009
      dxz     :     0.010792
      dyz     :     0.008952
      dx2y2   :     0.012261
      dxy     :     0.008451

  2 C s       :     3.465603  s :     3.465603
      pz      :     0.976521  p :     3.084459
      px      :     1.014447
      py      :     1.093491
      dz2     :     0.007963  d :     0.035145
      dxz     :     0.006802
      dyz     :     0.006363
      dx2y2   :     0.009497
      dxy     :     0.004520

  3 C s       :     3.536272  s :     3.536272
      pz      :     1.090914  p :     3.097648
      px      :     1.100511
      py      :     0.906223
      dz2     :     0.005645  d :     0.035243
      dxz     :     0.008165
      dyz     :     0.007633
      dx2y2   :     0.007492
      dxy     :     0.006309

  4 C s       :     3.064567  s :     3.064567
      pz      :     1.234902  p :     3.061672
      px      :     0.790445
      py      :     1.036325
      dz2     :     0.009147  d :     0.042021
      dxz     :     0.012158
      dyz     :     0.005986
      dx2y2   :     0.007575
      dxy     :     0.007155

  5 C s       :     3.265919  s :     3.265919
      pz      :     1.036943  p :     3.251222
      px      :     1.177834
      py      :     1.036446
      dz2     :     0.007081  d :     0.037015
      dxz     :     0.012946
      dyz     :     0.004748
      dx2y2   :     0.006647
      dxy     :     0.005592

  6 C s       :     3.396637  s :     3.396637
      pz      :     0.824289  p :     2.903585
      px      :     1.097961
      py      :     0.981335
      dz2     :     0.007630  d :     0.037382
      dxz     :     0.010110
      dyz     :     0.005790
      dx2y2   :     0.006564
      dxy     :     0.007288

  7 C s       :     1.211522  s :     1.211522
      pz      :     0.711221  p :     2.716790
      px      :     0.994776
      py      :     1.010792
      dz2     :     0.009495  d :     0.040258
      dxz     :     0.010902
      dyz     :     0.005979
      dx2y2   :     0.006837
      dxy     :     0.007045

  8 C s       :     3.060661  s :     3.060661
      pz      :     1.022461  p :     3.143955
      px      :     1.169542
      py      :     0.951952
      dz2     :     0.007367  d :     0.037600
      dxz     :     0.012937
      dyz     :     0.004903
      dx2y2   :     0.006899
      dxy     :     0.005493

  9 C s       :     3.400729  s :     3.400729
      pz      :     1.038596  p :     2.984837
      px      :     0.948685
      py      :     0.997556
      dz2     :     0.008326  d :     0.036809
      dxz     :     0.009541
      dyz     :     0.005732
      dx2y2   :     0.006528
      dxy     :     0.006682

 10 C s       :     4.050508  s :     4.050508
      pz      :     0.925790  p :     3.705489
      px      :     1.919778
      py      :     0.859921
      dz2     :     0.014716  d :     0.077737
      dxz     :     0.013445
      dyz     :     0.014097
      dx2y2   :     0.018736
      dxy     :     0.016743

 11 O s       :     3.954687  s :     3.954687
      pz      :     1.588207  p :     4.680566
      px      :     1.584987
      py      :     1.507373
      dz2     :     0.006082  d :     0.028392
      dxz     :     0.002949
      dyz     :     0.005400
      dx2y2   :     0.010401
      dxy     :     0.003560

 12 C s       :     2.114652  s :     2.114652
      pz      :     1.198343  p :     3.720932
      px      :     1.407254
      py      :     1.115335
      dz2     :     0.003190  d :     0.030455
      dxz     :     0.005675
      dyz     :     0.005657
      dx2y2   :     0.008489
      dxy     :     0.007444

 13 C s       :     4.108284  s :     4.108284
      pz      :     0.817423  p :     3.203586
      px      :     1.602705
      py      :     0.783458
      dz2     :     0.015152  d :     0.090120
      dxz     :     0.018466
      dyz     :     0.013989
      dx2y2   :     0.018039
      dxy     :     0.024473

 14 O s       :     3.966210  s :     3.966210
      pz      :     1.431541  p :     4.631500
      px      :     1.820583
      py      :     1.379375
      dz2     :     0.006245  d :     0.023890
      dxz     :     0.002670
      dyz     :     0.006034
      dx2y2   :     0.005160
      dxy     :     0.003780

 15 C s       :     1.609288  s :     1.609288
      pz      :     0.885092  p :     2.433028
      px      :     0.596210
      py      :     0.951726
      dz2     :     0.008563  d :     0.038957
      dxz     :     0.009994
      dyz     :     0.006110
      dx2y2   :     0.006640
      dxy     :     0.007651

 16 C s       :     2.967944  s :     2.967944
      pz      :     1.040252  p :     3.196802
      px      :     1.190120
      py      :     0.966430
      dz2     :     0.007274  d :     0.038163
      dxz     :     0.011975
      dyz     :     0.005348
      dx2y2   :     0.008218
      dxy     :     0.005347

 17 C s       :     3.808681  s :     3.808681
      pz      :     1.043420  p :     3.079886
      px      :     1.050007
      py      :     0.986459
      dz2     :     0.006307  d :     0.034928
      dxz     :     0.008945
      dyz     :     0.006498
      dx2y2   :     0.006963
      dxy     :     0.006215

 18 C s       :     3.181441  s :     3.181441
      pz      :     1.019873  p :     2.537667
      px      :     0.627809
      py      :     0.889984
      dz2     :     0.013340  d :     0.073038
      dxz     :     0.018939
      dyz     :     0.008862
      dx2y2   :     0.015547
      dxy     :     0.016349

 19 O s       :     3.865160  s :     3.865160
      pz      :     1.618959  p :     4.521390
      px      :     1.225654
      py      :     1.676777
      dz2     :     0.004342  d :     0.029694
      dxz     :     0.009393
      dyz     :     0.004028
      dx2y2   :     0.005316
      dxy     :     0.006615

 20 C s       :     3.362879  s :     3.362879
      pz      :     1.027871  p :     2.937888
      px      :     0.768555
      py      :     1.141463
      dz2     :     0.012425  d :     0.059500
      dxz     :     0.014971
      dyz     :     0.007283
      dx2y2   :     0.011619
      dxy     :     0.013201

 21 C s       :     2.246185  s :     2.246185
      pz      :     0.960025  p :     3.173170
      px      :     1.137874
      py      :     1.075271
      dz2     :     0.006718  d :     0.035279
      dxz     :     0.010272
      dyz     :     0.005581
      dx2y2   :     0.007801
      dxy     :     0.004906

 22 C s       :     3.734888  s :     3.734888
      pz      :     0.969523  p :     2.915606
      px      :     0.925497
      py      :     1.020586
      dz2     :     0.006832  d :     0.037967
      dxz     :     0.009048
      dyz     :     0.006740
      dx2y2   :     0.007754
      dxy     :     0.007592

 23 H s       :     0.774120  s :     0.774120

 24 H s       :     0.779504  s :     0.779504

 25 H s       :     0.774309  s :     0.774309

 26 H s       :     0.772645  s :     0.772645

 27 H s       :     0.771558  s :     0.771558

 28 H s       :     0.778437  s :     0.778437

 29 H s       :     0.776650  s :     0.776650

 30 H s       :     0.779451  s :     0.779451

 31 H s       :     0.772262  s :     0.772262

 32 H s       :     0.796860  s :     0.796860

 33 H s       :     0.784159  s :     0.784159

 34 H s       :     0.788291  s :     0.788291

 35 H s       :     0.793132  s :     0.793132

 36 H s       :     0.430179  s :     0.430179

 37 H s       :     0.786815  s :     0.786815

 38 H s       :     0.784944  s :     0.784944

 39 H s       :     0.786105  s :     0.786105

 40 H s       :     0.775486  s :     0.775486

 41 H s       :     0.775985  s :     0.775985

 42 H s       :     0.774094  s :     0.774094

 43 H s       :     0.783985  s :     0.783985

 44 H s       :     0.780145  s :     0.780145



                     *******************************
                     * LOEWDIN POPULATION ANALYSIS *
                     *******************************

----------------------
LOEWDIN ATOMIC CHARGES
----------------------
   0 C :   -0.484565
   1 C :   -0.254348
   2 C :   -0.500453
   3 C :   -0.486842
   4 C :   -0.114235
   5 C :   -0.197485
   6 C :   -0.151480
   7 C :   -0.105988
   8 C :   -0.163539
   9 C :   -0.197950
  10 C :    0.122131
  11 O :   -0.437251
  12 C :   -0.286521
  13 C :    0.128124
  14 O :   -0.458377
  15 C :   -0.133951
  16 C :   -0.160471
  17 C :   -0.186783
  18 C :    0.050067
  19 O :   -0.396503
  20 C :   -0.254820
  21 C :   -0.223555
  22 C :   -0.138768
  23 H :    0.208439
  24 H :    0.203025
  25 H :    0.205917
  26 H :    0.205884
  27 H :    0.206918
  28 H :    0.204383
  29 H :    0.204932
  30 H :    0.202862
  31 H :    0.208916
  32 H :    0.230105
  33 H :    0.236836
  34 H :    0.231598
  35 H :    0.231249
  36 H :    0.443537
  37 H :    0.243692
  38 H :    0.232415
  39 H :    0.235303
  40 H :    0.207141
  41 H :    0.209649
  42 H :    0.206672
  43 H :    0.234797
  44 H :    0.239291

-------------------------------
LOEWDIN REDUCED ORBITAL CHARGES
-------------------------------
  0 C s       :     2.987292  s :     2.987292
      pz      :     1.113385  p :     3.428741
      px      :     1.160461
      py      :     1.154895
      dz2     :     0.015195  d :     0.068531
      dxz     :     0.018728
      dyz     :     0.009370
      dx2y2   :     0.019780
      dxy     :     0.005458

  1 C s       :     2.864549  s :     2.864549
      pz      :     1.103840  p :     3.273286
      px      :     1.072068
      py      :     1.097378
      dz2     :     0.022066  d :     0.116514
      dxz     :     0.026360
      dyz     :     0.020195
      dx2y2   :     0.029829
      dxy     :     0.018064

  2 C s       :     2.986749  s :     2.986749
      pz      :     1.138718  p :     3.445444
      px      :     1.136247
      py      :     1.170478
      dz2     :     0.015328  d :     0.068260
      dxz     :     0.014811
      dyz     :     0.011880
      dx2y2   :     0.017842
      dxy     :     0.008399

  3 C s       :     2.987384  s :     2.987384
      pz      :     1.165884  p :     3.431013
      px      :     1.170523
      py      :     1.094605
      dz2     :     0.010818  d :     0.068445
      dxz     :     0.014734
      dyz     :     0.014755
      dx2y2   :     0.016076
      dxy     :     0.012062

  4 C s       :     2.857057  s :     2.857057
      pz      :     1.087799  p :     3.153149
      px      :     1.092179
      py      :     0.973171
      dz2     :     0.023661  d :     0.104029
      dxz     :     0.031680
      dyz     :     0.015149
      dx2y2   :     0.017505
      dxy     :     0.016034

  5 C s       :     2.883416  s :     2.883416
      pz      :     1.084907  p :     3.225933
      px      :     1.118148
      py      :     1.022878
      dz2     :     0.017425  d :     0.088136
      dxz     :     0.030298
      dyz     :     0.011503
      dx2y2   :     0.015343
      dxy     :     0.013567

  6 C s       :     2.886653  s :     2.886653
      pz      :     1.084945  p :     3.176463
      px      :     1.092949
      py      :     0.998570
      dz2     :     0.017220  d :     0.088363
      dxz     :     0.025876
      dyz     :     0.010661
      dx2y2   :     0.017719
      dxy     :     0.016887

  7 C s       :     2.832974  s :     2.832974
      pz      :     1.094414  p :     3.169458
      px      :     1.054518
      py      :     1.020527
      dz2     :     0.024750  d :     0.103556
      dxz     :     0.030101
      dyz     :     0.014936
      dx2y2   :     0.017416
      dxy     :     0.016353

  8 C s       :     2.885943  s :     2.885943
      pz      :     1.077357  p :     3.188838
      px      :     1.118812
      py      :     0.992669
      dz2     :     0.017941  d :     0.088757
      dxz     :     0.030035
      dyz     :     0.011891
      dx2y2   :     0.015873
      dxy     :     0.013017

  9 C s       :     2.884090  s :     2.884090
      pz      :     1.092709  p :     3.226016
      px      :     1.110713
      py      :     1.022593
      dz2     :     0.018838  d :     0.087843
      dxz     :     0.025103
      dyz     :     0.010570
      dx2y2   :     0.017806
      dxy     :     0.015526

 10 C s       :     2.811514  s :     2.811514
      pz      :     0.876877  p :     2.884061
      px      :     1.105335
      py      :     0.901849
      dz2     :     0.031274  d :     0.182294
      dxz     :     0.031255
      dyz     :     0.035475
      dx2y2   :     0.043433
      dxy     :     0.040857

 11 O s       :     3.525114  s :     3.525114
      pz      :     1.642823  p :     4.856738
      px      :     1.629193
      py      :     1.584723
      dz2     :     0.009943  d :     0.055399
      dxz     :     0.006191
      dyz     :     0.013424
      dx2y2   :     0.017835
      dxy     :     0.008005

 12 C s       :     2.875010  s :     2.875010
      pz      :     1.141904  p :     3.334903
      px      :     1.066286
      py      :     1.126714
      dz2     :     0.007264  d :     0.076607
      dxz     :     0.014856
      dyz     :     0.011144
      dx2y2   :     0.023392
      dxy     :     0.019951

 13 C s       :     2.810081  s :     2.810081
      pz      :     0.861162  p :     2.849353
      px      :     1.070680
      py      :     0.917510
      dz2     :     0.031303  d :     0.212442
      dxz     :     0.043847
      dyz     :     0.036064
      dx2y2   :     0.040971
      dxy     :     0.060256

 14 O s       :     3.561864  s :     3.561864
      pz      :     1.512439  p :     4.844353
      px      :     1.827986
      py      :     1.503929
      dz2     :     0.009137  d :     0.052160
      dxz     :     0.006052
      dyz     :     0.017562
      dx2y2   :     0.010789
      dxy     :     0.008621

 15 C s       :     2.840897  s :     2.840897
      pz      :     1.084720  p :     3.191867
      px      :     1.070243
      py      :     1.036904
      dz2     :     0.021721  d :     0.101186
      dxz     :     0.027917
      dyz     :     0.015830
      dx2y2   :     0.017016
      dxy     :     0.018702

 16 C s       :     2.887525  s :     2.887525
      pz      :     1.069882  p :     3.183075
      px      :     1.112925
      py      :     1.000268
      dz2     :     0.017445  d :     0.089871
      dxz     :     0.027164
      dyz     :     0.013778
      dx2y2   :     0.017973
      dxy     :     0.013511

 17 C s       :     2.888225  s :     2.888225
      pz      :     1.085180  p :     3.214678
      px      :     1.076171
      py      :     1.053327
      dz2     :     0.014299  d :     0.083880
      dxz     :     0.023669
      dyz     :     0.012318
      dx2y2   :     0.018076
      dxy     :     0.015518

 18 C s       :     2.809439  s :     2.809439
      pz      :     1.055043  p :     2.966566
      px      :     0.969314
      py      :     0.942209
      dz2     :     0.030944  d :     0.173928
      dxz     :     0.046886
      dyz     :     0.023061
      dx2y2   :     0.035129
      dxy     :     0.037908

 19 O s       :     3.482796  s :     3.482796
      pz      :     1.708927  p :     4.842553
      px      :     1.400220
      py      :     1.733407
      dz2     :     0.009885  d :     0.071153
      dxz     :     0.021944
      dyz     :     0.006711
      dx2y2   :     0.015169
      dxy     :     0.017445

 20 C s       :     2.957112  s :     2.957112
      pz      :     1.088035  p :     3.178864
      px      :     0.916526
      py      :     1.174303
      dz2     :     0.024380  d :     0.118844
      dxz     :     0.032424
      dyz     :     0.013226
      dx2y2   :     0.022634
      dxy     :     0.026181

 21 C s       :     2.883059  s :     2.883059
      pz      :     1.072250  p :     3.255735
      px      :     1.122318
      py      :     1.061167
      dz2     :     0.016518  d :     0.084760
      dxz     :     0.023725
      dyz     :     0.014866
      dx2y2   :     0.017089
      dxy     :     0.012562

 22 C s       :     2.888418  s :     2.888418
      pz      :     1.076601  p :     3.160812
      px      :     1.080877
      py      :     1.003335
      dz2     :     0.015421  d :     0.089537
      dxz     :     0.022936
      dyz     :     0.012705
      dx2y2   :     0.019872
      dxy     :     0.018603

 23 H s       :     0.791561  s :     0.791561

 24 H s       :     0.796975  s :     0.796975

 25 H s       :     0.794083  s :     0.794083

 26 H s       :     0.794116  s :     0.794116

 27 H s       :     0.793082  s :     0.793082

 28 H s       :     0.795617  s :     0.795617

 29 H s       :     0.795068  s :     0.795068

 30 H s       :     0.797138  s :     0.797138

 31 H s       :     0.791084  s :     0.791084

 32 H s       :     0.769895  s :     0.769895

 33 H s       :     0.763164  s :     0.763164

 34 H s       :     0.768402  s :     0.768402

 35 H s       :     0.768751  s :     0.768751

 36 H s       :     0.556463  s :     0.556463

 37 H s       :     0.756308  s :     0.756308

 38 H s       :     0.767585  s :     0.767585

 39 H s       :     0.764697  s :     0.764697

 40 H s       :     0.792859  s :     0.792859

 41 H s       :     0.790351  s :     0.790351

 42 H s       :     0.793328  s :     0.793328

 43 H s       :     0.765203  s :     0.765203

 44 H s       :     0.760709  s :     0.760709



                      *****************************
                      * MAYER POPULATION ANALYSIS *
                      *****************************

  NA   - Mulliken gross atomic population
  ZA   - Total nuclear charge
  QA   - Mulliken gross atomic charge
  VA   - Mayer's total valence
  BVA  - Mayer's bonded valence
  FA   - Mayer's free valence

  ATOM       NA         ZA         QA         VA         BVA        FA
  0 C      6.6792     6.0000    -0.6792     3.3945     3.3945     0.0000
  1 C      5.2477     6.0000     0.7523     2.0226     2.0226    -0.0000
  2 C      6.5852     6.0000    -0.5852     3.1391     3.1391    -0.0000
  3 C      6.6692     6.0000    -0.6692     3.3384     3.3384    -0.0000
  4 C      6.1683     6.0000    -0.1683     3.3974     3.3974    -0.0000
  5 C      6.5542     6.0000    -0.5542     4.5836     4.5836     0.0000
  6 C      6.3376     6.0000    -0.3376     2.7056     2.7056    -0.0000
[...]
  0-1A  ->  6-1A    4.958737   39994.9   250.0   0.038155890   0.31407  -0.44415  -0.26324   0.21796
  0-1A  ->  7-1A    5.133775   41406.7   241.5   0.085544359   0.68014  -0.11393   0.56952  -0.58550
  0-1A  ->  8-1A    5.210030   42021.7   238.0   0.006202944   0.04860  -0.12452  -0.11539  -0.14062
  0-1A  ->  9-1A    5.265160   42466.4   235.5   0.007500328   0.05814   0.19140  -0.06535  -0.13130
  0-1A  -> 10-1A    5.479303   44193.6   226.3   0.151678644   1.12990  -0.93293  -0.42329   0.28349
  0-1A  -> 11-1A    5.513924   44472.8   224.9   0.064372667   0.47652  -0.60722   0.08451  -0.31727
  0-1A  -> 12-1A    5.619808   45326.8   220.6   0.004544423   0.03301   0.09283  -0.11887  -0.10129
  0-1A  -> 13-1A    5.672642   45752.9   218.6   0.004779155   0.03439   0.04402  -0.17493   0.04303
  0-1A  -> 14-1A    5.801129   46789.3   213.7   0.001065110   0.00749   0.05522   0.05570  -0.03665
  0-1A  -> 15-1A    5.872830   47367.6   211.1   0.004090595   0.02843  -0.05165   0.10212   0.12383
  0-1A  -> 16-1A    5.876019   47393.3   211.0   0.002229774   0.01549   0.12349  -0.00360   0.01505
  0-1A  -> 17-1A    5.981920   48247.4   207.3   0.051852200   0.35381   0.49063   0.09610  -0.32226
  0-1A  -> 18-1A    6.030121   48636.2   205.6   0.008703811   0.05891  -0.21606  -0.07816   0.07825
  0-1A  -> 19-1A    6.090887   49126.3   203.6   0.005714087   0.03829   0.15964  -0.07634  -0.08354
  0-1A  -> 20-1A    6.094354   49154.3   203.4   0.008685874   0.05817   0.12474   0.20616   0.01054
  0-1A  -> 21-1A    6.160685   49689.3   201.3   0.013736416   0.09101   0.04179  -0.20868  -0.21381
  0-1A  -> 22-1A    6.170450   49768.0   200.9   0.003707726   0.02453   0.11997   0.04666  -0.08920

----------------------------------------------------------------------------------------------------
                     ABSORPTION SPECTRUM VIA TRANSITION VELOCITY DIPOLE MOMENTS    
----------------------------------------------------------------------------------------------------
     Transition      Energy     Energy  Wavelength fosc(P2)      P2        PX        PY        PZ   
                      (eV)      (cm-1)    (nm)                 (au**2)    (au)      (au)      (au)  
----------------------------------------------------------------------------------------------------
  0-1A  ->  1-1A    3.654619   29476.5   339.3   0.593451501   0.11956   0.34545   0.00870   0.01210
  0-1A  ->  2-1A    3.942865   31801.4   314.5   0.039861323   0.00866  -0.09279   0.00214  -0.00706
  0-1A  ->  3-1A    4.212318   33974.6   294.3   0.051884040   0.01205   0.10540  -0.02427   0.01869
  0-1A  ->  4-1A    4.414485   35605.2   280.9   0.000406100   0.00010   0.00362   0.00299  -0.00876
  0-1A  ->  5-1A    4.526707   36510.4   273.9   0.000913022   0.00023   0.01115  -0.00974   0.00291
  0-1A  ->  6-1A    4.958737   39994.9   250.0   0.007392801   0.00202   0.04263   0.00926  -0.01085
  0-1A  ->  7-1A    5.133775   41406.7   241.5   0.010256441   0.00290   0.00926  -0.04896   0.02048
  0-1A  ->  8-1A    5.210030   42021.7   238.0   0.009147694   0.00263  -0.01940   0.04065  -0.02447
  0-1A  ->  9-1A    5.265160   42466.4   235.5   0.005315095   0.00154  -0.00628   0.02833  -0.02647
  0-1A  -> 10-1A    5.479303   44193.6   226.3   0.080046099   0.02418   0.15417   0.02019   0.00058
  0-1A  -> 11-1A    5.513924   44472.8   224.9   0.025099663   0.00763   0.08490  -0.00748   0.01912
  0-1A  -> 12-1A    5.619808   45326.8   220.6   0.001565018   0.00048  -0.01472   0.01575   0.00447
  0-1A  -> 13-1A    5.672642   45752.9   218.6   0.000847360   0.00026  -0.00813   0.01293   0.00561
  0-1A  -> 14-1A    5.801129   46789.3   213.7   0.001150500   0.00037  -0.01642  -0.00966  -0.00226
  0-1A  -> 15-1A    5.872830   47367.6   211.1   0.002468103   0.00080   0.00463  -0.02210  -0.01700
  0-1A  -> 16-1A    5.876019   47393.3   211.0   0.001640227   0.00053  -0.02255   0.00449   0.00163
  0-1A  -> 17-1A    5.981920   48247.4   207.3   0.013286648   0.00438  -0.06602   0.00221   0.00419
  0-1A  -> 18-1A    6.030121   48636.2   205.6   0.004659765   0.00155   0.03935   0.00074   0.00009
  0-1A  -> 19-1A    6.090887   49126.3   203.6   0.003409674   0.00114  -0.03371   0.00201   0.00216
  0-1A  -> 20-1A    6.094354   49154.3   203.4   0.007082518   0.00238  -0.01868  -0.04103  -0.01863
  0-1A  -> 21-1A    6.160685   49689.3   201.3   0.006457374   0.00219  -0.01249   0.03901   0.02269
  0-1A  -> 22-1A    6.170450   49768.0   200.9   0.006208515   0.00211  -0.04538  -0.00557   0.00468

------------------------------------------------------------------------------------------
                     CD SPECTRUM VIA TRANSITION ELECTRIC DIPOLE MOMENTS    
------------------------------------------------------------------------------------------
     Transition      Energy     Energy  Wavelength    R        MX        MY        MZ   
                      (eV)      (cm-1)    (nm)   (1e40*cgs)   (au)      (au)      (au)  
------------------------------------------------------------------------------------------
  0-1A  ->  1-1A    3.654619   29476.5   339.3   48.46061   0.02427   0.17694   0.41096
  0-1A  ->  2-1A    3.942865   31801.4   314.5  -22.74658   0.03590  -0.23978   0.00302
  0-1A  ->  3-1A    4.212318   33974.6   294.3  -29.11941  -0.04845   0.14457   0.19201
  0-1A  ->  4-1A    4.414485   35605.2   280.9    1.91074   0.01491   0.10930   0.05945
  0-1A  ->  5-1A    4.526707   36510.4   273.9    0.76772   0.03712  -0.08729  -0.09420
  0-1A  ->  6-1A    4.958737   39994.9   250.0    3.78324   0.02268  -0.02985  -0.02665
  0-1A  ->  7-1A    5.133775   41406.7   241.5  -21.06059   0.01204   0.10966   0.02803
  0-1A  ->  8-1A    5.210030   42021.7   238.0   -9.62160  -0.03974  -0.07044  -0.05214
  0-1A  ->  9-1A    5.265160   42466.4   235.5    2.96597  -0.02268  -0.01704   0.02334
  0-1A  -> 10-1A    5.479303   44193.6   226.3   -3.51992   0.05411  -0.00904   0.19091
  0-1A  -> 11-1A    5.513924   44472.8   224.9   30.64735   0.03578   0.13798   0.17317
  0-1A  -> 12-1A    5.619808   45326.8   220.6  -10.27696   0.13878  -0.09315   0.02130
  0-1A  -> 13-1A    5.672642   45752.9   218.6    0.51985   0.05762   0.02580   0.02032
  0-1A  -> 14-1A    5.801129   46789.3   213.7    3.95877  -0.03074  -0.09397   0.04001
  0-1A  -> 15-1A    5.872830   47367.6   211.1   11.38835   0.02233   0.10091  -0.26898
  0-1A  -> 16-1A    5.876019   47393.3   211.0    2.65160  -0.06694  -0.08940   0.15422
  0-1A  -> 17-1A    5.981920   48247.4   207.3   -9.55348  -0.01430   0.08718  -0.05865
  0-1A  -> 18-1A    6.030121   48636.2   205.6   -7.39088  -0.05000   0.07283   0.13504
  0-1A  -> 19-1A    6.090887   49126.3   203.6  -10.00807   0.05016   0.03603  -0.19116
  0-1A  -> 20-1A    6.094354   49154.3   203.4   -1.29617   0.10035  -0.05094   0.06971
  0-1A  -> 21-1A    6.160685   49689.3   201.3   -9.91022  -0.02789  -0.11644   0.00988
  0-1A  -> 22-1A    6.170450   49768.0   200.9   -1.98240   0.00115  -0.25146  -0.17714

------------------------------------------------------------------------------------------
                     CD SPECTRUM VIA TRANSITION VELOCITY DIPOLE MOMENTS    
------------------------------------------------------------------------------------------
     Transition      Energy     Energy  Wavelength    R        MX        MY        MZ   
                      (eV)      (cm-1)    (nm)   (1e40*cgs)   (au)      (au)      (au)  
------------------------------------------------------------------------------------------
  0-1A  ->  1-1A    3.654619   29476.5   339.3   52.29399   0.02427   0.17694   0.41096
  0-1A  ->  2-1A    3.942865   31801.4   314.5  -12.57518   0.03590  -0.23978   0.00302
  0-1A  ->  3-1A    4.212318   33974.6   294.3  -15.31043  -0.04845   0.14457   0.19201
  0-1A  ->  4-1A    4.414485   35605.2   280.9   -0.40798   0.01491   0.10930   0.05945
  0-1A  ->  5-1A    4.526707   36510.4   273.9    2.80617   0.03712  -0.08729  -0.09420
  0-1A  ->  6-1A    4.958737   39994.9   250.0    2.53447   0.02268  -0.02985  -0.02665
  0-1A  ->  7-1A    5.133775   41406.7   241.5  -11.70347   0.01204   0.10966   0.02803
  0-1A  ->  8-1A    5.210030   42021.7   238.0   -2.01012  -0.03974  -0.07044  -0.05214
  0-1A  ->  9-1A    5.265160   42466.4   235.5   -2.33501  -0.02268  -0.01704   0.02334
  0-1A  -> 10-1A    5.479303   44193.6   226.3   19.36351   0.05411  -0.00904   0.19091
  0-1A  -> 11-1A    5.513924   44472.8   224.9   12.36944   0.03578   0.13798   0.17317
  0-1A  -> 12-1A    5.619808   45326.8   220.6   -7.79556   0.13878  -0.09315   0.02130
  0-1A  -> 13-1A    5.672642   45752.9   218.6   -0.04696   0.05762   0.02580   0.02032
  0-1A  -> 14-1A    5.801129   46789.3   213.7    2.92228  -0.03074  -0.09397   0.04001
  0-1A  -> 15-1A    5.872830   47367.6   211.1    5.34196   0.02233   0.10091  -0.26898
  0-1A  -> 16-1A    5.876019   47393.3   211.0    2.97064  -0.06694  -0.08940   0.15422
  0-1A  -> 17-1A    5.981920   48247.4   207.3    1.91045  -0.01430   0.08718  -0.05865
  0-1A  -> 18-1A    6.030121   48636.2   205.6   -4.04415  -0.05000   0.07283   0.13504
  0-1A  -> 19-1A    6.090887   49126.3   203.6   -4.27653   0.05016   0.03603  -0.19116
  0-1A  -> 20-1A    6.094354   49154.3   203.4   -2.27928   0.10035  -0.05094   0.06971
  0-1A  -> 21-1A    6.160685   49689.3   201.3   -8.26736  -0.02789  -0.11644   0.00988
  0-1A  -> 22-1A    6.170450   49768.0   200.9    1.08062   0.00115  -0.25146  -0.17714

Total run time:      491.537 sec

           *** ORCA-CIS/TD-DFT FINISHED WITHOUT ERROR ***
-----------------------
CIS/TD-DFT TOTAL ENERGY
-----------------------

    E(SCF)  =  -1000.475724467 Eh
    DE(CIS) =      0.134304787 Eh (Root  1)
    ----------------------------- ---------
    E(tot)  =  -1000.341419680 Eh


Maximum memory used throughout the entire CIS-calculation: 900.5 MB
=> NOW LEAVING ORCA_CIS

-------------------------   --------------------
FINAL SINGLE POINT ENERGY     -1000.341419679847
-------------------------   --------------------



           ************************************************************
           *        Program running with 4 parallel MPI-processes     *
           *              working on a common directory               *
           ************************************************************

------------------------------------------------------------------------------
                              ORCA PROPERTY CALCULATIONS
------------------------------------------------------------------------------

GBWName                                 ... td.gbw
Number of atoms                         ...     45
Number of basis functions               ...    458
Max core memory                         ...   2500 MB

Electric properties:
Dipole moment                           ... YES
Quadrupole moment                       ...  NO
Static polarizability (Dipole/Dipole)   ...  NO
Static polarizability (Dipole/Quad.)    ...  NO
Static polarizability (Quad./Quad.)     ...  NO
Static polarizability (Velocity)        ...  NO
Static hyperpolarizability              ...  NO

Atomic electric properties:
Dipole moment                           ...  NO
Quadrupole moment                       ...  NO
Static polarizability                   ...  NO

Choice of electric origin               ... Center of mass
Position of electric origin             ...     1.201078    -0.475818     0.273000

General magnetic properties:
Magnetizability                         ...  NO

EPR properties:
g-Tensor (aka g-matrix)                 ...  NO
Zero-Field splitting spin-orbit         ...  NO
Zero-field splitting spin-spin          ...  NO
Hyperfine couplings                     ...  NO (   0 nuclei)
Quadrupole couplings                    ...  NO (   0 nuclei)
Contact density                         ...  NO (   0 nuclei)

NMR properties:
Chemical shifts                         ...  NO (   0 nuclei)
Spin-rotation constants                 ...  NO (   0 nuclei)
Spin-spin couplings                     ...  NO (   0 nuclei,    0 pairs)

Choice of magnetic origin               ... GIAO
Position of magnetic origin             ...     0.000000     0.000000     0.000000

Properties with geometric perturbations:
SCF Hessian                             ...  NO
IR spectrum                             ...  NO
VCD spectrum                            ...  NO
X-ray spectroscopy properties:
SCF XES/XAS/RIXS spectra                ...  NO

SCF SOC stabilization energy            ...  NO
Diagonal Born-Oppenheimer correction    ...  NO

-------------
DIPOLE MOMENT
-------------

Method             : SCF
Type of density    : Electron Density
Multiplicity       :   1
Irrep              :   0
Energy             : -1000.4757244666565157 Eh
Basis              : AO
                                X                 Y                 Z
Electronic contribution:     26.377751641      -9.020063624       5.439270945
Nuclear contribution   :    -26.433683190      10.684406738      -6.258276052
                        -----------------------------------------
Total Dipole Moment    :     -0.055931549       1.664343114      -0.819005107
                        -----------------------------------------
Magnitude (a.u.)       :      1.855784391
Magnitude (Debye)      :      4.717029054



--------------------
Rotational spectrum 
--------------------
 
Rotational constants in cm-1:             0.022563             0.002648             0.002436 
Rotational constants in MHz :           676.428241            79.377083            73.040120 

Dipole components along the rotational axes: 
x,y,z [a.u.] :    -0.023817     1.799566     0.452692 
x,y,z [Debye]:    -0.060538     4.574134     1.150650 

 

Dipole moment calculation done in   0.0 sec 

Maximum memory used throughout the entire PROP-calculation: 31.2 MB

--------------------------------
SUGGESTED CITATIONS FOR THIS RUN
--------------------------------

Below you find a list of papers that are relevant to this ORCA run
We neither can nor want to force you to cite these papers, but we appreciate if you do
You receive ORCA, which is the product of decades of hard work by many enthusiastic individuals, for free
The only thing we kindly ask in return is that you cite our papers,
We deeply appreciate it, if you show your appreciation for ORCA by not just citing the generic ORCA reference.

Please note that relegating all ORCA citations to the supporting information does *not* help us.
SI sections are not indexed - citations you put there will not count into any citation statistics
But we need these citations in order to attract the funding resources that allow us to do what we are doing

Therefore, if you are a happy ORCA user, please consider citing a few of the papers listed below in the main body of your paper

In addition to the list printed below, the program has created the file td.bibtex that contains the list in bibtex format
You can import this file easily into all common literature databanks and citation aid programs

It goes without saying that in many instances, there are alternative algorithms to achieve similar
results as the ones you have gotten from ORCA. It is, of course, also the case that in some instances
ORCA just re-implements algorithms worked out by others. We are fully aware of that and we are also
fully appreciative of our colleagues work. Hence this citation list should not be read as indicating
that the listed papers, which are focused on our own work, are the only ones worth citing. It simply
meant to make it easier for users to cite ORCA specific papers. It is not a substitute for doing your
own literature research and citing the relevant literature in a scientifically appropriate manner.

List of essential papers. We consider these as the minimum necessary citations

  1. Neese, F.
     Software update: the ORCA program system, version 6.0
     WIRES Comput. Molec. Sci. 2025 15(1), e70019
     doi.org/10.1002/wcms.70019

List of papers to cite with high priority. The work reported in these papers was absolutely
necessary for this run to complete.
Our perspective: the developers of density functionals and basis sets usually get cited in chemistry papers
Good! But without the algorithms to do something with them, the functionals or basis sets would not do anything.
Hence, in our opinion, the algorithm design and method developments papers are equally worthy of getting cited

  1. Neese, F.; Olbrich, G.
     Efficient use of the resolution of the identity approximation in time-dependent density functional calculations with hybrid density functionals
     Chem. Phys. Lett. 2002 362 , 170-178
     doi.org/10.1016/s0009-2614(02)01053-9
  2. Neese, F.
     An improvement of the resolution of the identity approximation for the formation of the Coulomb matrix
     J. Comp. Chem. 2003 24(14), 1740-1747
     doi.org/10.1002/jcc.10318
  3. Neese, F.; Wennmohs, F.; Hansen, A.; Becker, U.
     Efficient, approximate and parallel Hartree-Fock and hybrid DFT calculations. A 'chain-of-spheres' algorithm for the Hartree-Fock exchange
     Chem. Phys. 2009 356(1-3), 98-109
     doi.org/10.1016/j.chemphys.2008.10.036
  4. Garcia-Rates, M.; Neese, F.
     Effect of the Solute Cavity on the Solvation Energy and its Derivatives within the Framework of the Gaussian Charge Scheme
     J. Comput. Chem. 2020 41 , 922-939
     doi.org/10.1002/jcc.26139
  5. Helmich-Paris, B.; de Souza, B.; Neese, F.; Izsák, R.
     An improved chain of spheres for exchange algorithm
     J. Chem. Phys. 2021 155(10), 104109
     doi.org/10.1063/5.0058766
  6. Neese, F.
     The SHARK Integral Generation and Digestion System
     J. Comp. Chem. 2022 44(3), 381
     doi.org/10.1002/jcc.26942

List of suggested additional citations. These are papers that are important in the 'surrounding' of 
of this run, or papers that preceded the highly important papers. If you like your results we are grateful for a citation.

  1. Izsak, R.; Neese, F.
     An overlap fitted chain of spheres exchange method
     J. Chem. Phys. 2011 135 , 144105
     doi.org/10.1063/1.3646921
  2. Izsak, R.; Hansen, A.; Neese, F.
     The resolution of identity and chain of spheres approximations for the LPNO-CCSD singles Fock term
     Molec. Phys. 2012 110 , 2413-2417
     doi.org/10.1080/00268976.2012.687466
  3. Neese, F.
     The ORCA program system
     WIRES Comput. Molec. Sci. 2012 2(1), 73-78
     doi.org/10.1002/wcms.81
  4. Izsak, R.; Neese, F.; Klopper, W.
     Robust fitting techniques in the chain of spheres approximation to the Fock exchange: The role of the complementary space
     J. Chem. Phys. 2013 139 , 
     doi.org/10.1063/1.4819264
  5. Neese, F.
     Software update: the ORCA program system, version 4.0
     WIRES Comput. Molec. Sci. 2018 8(1), 1-6
     doi.org/10.1002/wcms.1327
  6. Neese, F.; Wennmohs, F.; Becker, U.; Riplinger, C.
     The ORCA quantum chemistry program package
     J. Chem. Phys. 2020 152(22), 224108
     doi.org/10.1063/5.0004608
  7. Neese, F.
     Software update: The ORCA program system—Version 5.0
     WIRES Comput. Molec. Sci. 2022 12(1), e1606
     doi.org/10.1002/wcms.1606

List of optional additional citations

  1. Neese, F.
     Approximate second-order SCF convergence for spin unrestricted wavefunctions
     Chem. Phys. Lett. 2000 325(1-3), 93-98
     doi.org/10.1016/s0009-2614(00)00662-x

Timings for individual modules:

Sum of individual times          ...      811.112 sec (=  13.519 min)
Startup calculation              ...        6.551 sec (=   0.109 min)   0.8 %
SCF iterations                   ...      311.855 sec (=   5.198 min)  38.4 %
Property integrals               ...        0.498 sec (=   0.008 min)   0.1 %
Property calculations            ...        0.383 sec (=   0.006 min)   0.0 %
CIS module                       ...      491.825 sec (=   8.197 min)  60.6 %
                             ****ORCA TERMINATED NORMALLY****
TOTAL RUN TIME: 0 days 0 hours 13 minutes 31 seconds 859 msec
