
                                 *****************
                                 * O   R   C   A *
                                 *****************

                                            #,                                       
                                            ###                                      
                                            ####                                     
                                            #####                                    
                                            ######                                   
                                           ########,                                 
                                     ,,################,,,,,                         
                               ,,#################################,,                 
                          ,,##########################################,,             
                       ,#########################################, ''#####,          
                    ,#############################################,,   '####,        
                  ,##################################################,,,,####,       
                ,###########''''           ''''###############################       
              ,#####''   ,,,,##########,,,,          '''####'''          '####       
            ,##' ,,,,###########################,,,                        '##       
           ' ,,###''''                  '''############,,,                           
         ,,##''                                '''############,,,,        ,,,,,,###''
      ,#''                                            '''#######################'''  
     '                                                          ''''####''''         
             ,#######,   #######,   ,#######,      ##                                
            ,#'     '#,  ##    ##  ,#'     '#,    #''#        ,####,    ,#,          
            ##       ##  ##   ,#'  ##            #'  '#       #'       ,# #          
            ##       ##  #######   ##           ,######,      #####,      #          
            '#,     ,#'  ##    ##  '#,     ,#' ,#      #,     #,   #      #          
             '#######'   ##     ##  '#######'  #'      '#     '####' #    #          



                #########################################################
                #                        -***-                          #
                #          Department of theory and spectroscopy        #
                #                                                       #
                #                      Frank Neese                      #
                #                                                       #
                #     Directorship, Architecture, Infrastructure        #
                #                    SHARK, DRIVERS                     #
                #        Core code/Algorithms in most modules           #
                #                                                       #
                #        Max Planck Institute fuer Kohlenforschung      #
                #                Kaiser Wilhelm Platz 1                 #
                #                 D-45470 Muelheim/Ruhr                 #
                #                      Germany                          #
                #                                                       #
                #                  All rights reserved                  #
                #                        -***-                          #
                #########################################################


                         Program Version 6.1.1  -  RELEASE   -


 With contributions from (in alphabetic order):
[Max-Planck-Institut fuer Kohlenforschung]                               
  Daniel Aravena         : Magnetic Suceptibility                        
  Michael Atanasov       : Ab Initio Ligand Field Theory (pilot matlab implementation)
  Alexander A. Auer      : GIAO ZORA, VPT2 properties, NMR spectrum      
  Ute Becker             : All parallelization in ORCA, NUMFREQ, NUMCALC 
  Giovanni Bistoni       : ED, misc. LED, open-shell LED, HFLD           
  Dmytro Bykov           : pre 5.0 version of the SCF Hessian            
  Marcos Casanova-Páez   : Triplet and SCS-CIS(D). UHF-(DLPNO)-IP/EA/STEOM-CCSD. UHF-CVS-IP/STEOM-CCSD   
  Vijay G. Chilkuri      : MRCI spin determinant printing, contributions to CSF-ICE 
  Pauline Colinet        : FMM embedding                                 
  Dipayan Datta          : RHF DLPNO-CCSD density                        
  Achintya Kumar Dutta   : EOM-CC, STEOM-CC                              
  Nicolas Foglia         : Exact transition moments, OPA infrastructure, MCD improvements    
  Dmitry Ganyushin       : Spin-Orbit,Spin-Spin,Magnetic field MRCI      
  Miquel Garcia-Rates    : C-PCM and meta-GGA Hessian, CCSD/C-PCM, Gaussian charge scheme 
  Tiago L. C. Gouveia    : GS-ROHF, GS-ROCIS                             
  Yang Guo               : DLPNO-NEVPT2, F12-NEVPT2, CIM, IAO-localization        
  Andreas Hansen         : Spin unrestricted coupled pair/coupled cluster methods 
  Ingolf Harden          : AUTO-CI MPn and infrastructure                
  Benjamin Helmich-Paris : MC-RPA, TRAH-(SCF,CASSCF), AVAS, COSX integrals, SCF dyn. polar., MC-PDFT, srDFT 
  Lee Huntington         : MR-EOM, pCC                                   
  Robert Izsak           : Overlap fitted RIJCOSX, COSX-SCS-MP3, EOM     
  Riya Kayal             : Wick's Theorem for AUTO-CI, AUTO-CI UHF-CCSDT 
  Emily Kempfer          : AUTO-CI RHF CISDT and CCSDT, approximate NEVPT4
  Christian Kollmar      : KDIIS, OOCD, Brueckner-CCSD(T), CCSD density, CASPT2, CASPT2-K, improved NEVPT2 
  Axel Koslowski         : Symmetry handling                             
  Simone Kossmann        : meta-GGA functionals, TD-DFT gradient, OOMP2, (MP2 Hessian; deprecated post 5.0) 
  Lucas Lang             : DCDCAS, Hyperfine gauge corrections, ICE-SOC+SSC
  Marvin Lechner         : AUTO-CI (C++ implementation), FIC-MRCC        
  Spencer Leger          : CASSCF response                               
  Dagmar Lenk            : GEPOL surface, SMD, ORCA-2-JSON               
  Dimitrios Liakos       : Extrapolation schemes; Compound Job, Property file
  Dimitrios Manganas     : Further ROCIS development; embedding schemes. LFT, Crystal Embedding 
  Dimitrios Pantazis     : SARC Basis sets                               
  Anastasios Papadopoulos: AUTO-CI, single reference methods and gradients 
  Taras Petrenko         : pre 6.0 DFT Hessian and TD-DFT gradient,  ECA, NRVS 
  Petra Pikulova         : Analytic Raman intensities                    
  Peter Pinski           : DLPNO-MP2, DLPNO-MP2 Gradient                 
  Shashank Vittal Rao    : ES-AILFT, MagRelax                            
  Christoph Reimann      : Effective Core Potentials                     
  Marius Retegan         : Local ZFS, SOC                                
  Christoph Riplinger    : Optimizer, TS searches, QM/MM, DLPNO-CCSD(T), (RO)-DLPNO pert. Triples 
  Michael Roemelt        : Original ROCIS implementation, recursive CI coupling coefficients
  Masaaki Saitow         : Open-shell DLPNO-CCSD energy and density      
  Barbara Sandhoefer     : DKH picture change effects                    
  Yorick L. A. Schmerwitz: GMF and freeze-and-release deltaSCF, NEB S-IDPP initial path                    
  Kantharuban Sivalingam : CASSCF convergence/infrastructure, NEVPT2, NEVPT3, NEVPT4(SD), FIC-MRCI and CEPA variants
  Bernardo de Souza      : ESD, SOC TD-DFT                               
  Georgi L. Stoychev     : AutoAux, RI-MP2 NMR, DLPNO-MP2 response, X2C  
  Van Anh Tran           : RI-MP2 g-tensors                              
  Willem Van den Heuvel  : Paramagnetic NMR                              
  Zikuan Wang            : NOTCH, Electric field optimization            
  Frank Wennmohs         : Technical directorship and infrastructure     
  Hang Xu                : AUTO-CI-Response properties                   
                                                                         
[FACCTs GmbH]                                                            
  Markus Bursch, Nicolas Foglia, Miquel Garcia-Rates, Ingolf Harden, Hagen Neugebauer, Anastasios Papadopoulos, 
  Christoph Riplinger, Bernardo de Souza, Georgi L. Stoychev                                                    
                                                                 
  APM, various basis sets, CI-OPT, improved COSX, DLPNO-Multilevel,           
  DOCKER, DRACO, updates on ESD, Fragmentator, GOAT, IRC, LR-CPCM, L-BFGS, MBIS, meta-GGA TD-DFT gradient, ML-optimized integration grids, 
  MM, NACMEs, nearIR, NEB, NEB-TS, NL-DFT gradient (VV10), 2- and 3-layer-ONIOM, interface openCOSMO-RS, QMMM,   
  Crystal-QMMM, RESP, rigid body optimization, SF, symmetry and pop. for TD-DFT, various functionals, SOLVATOR                                   
                                                                         
[Other institutions]                                                     
  V. Asgeirsson          : NEB                                           
  Christoph Bannwarth    : sTDA-DFT, sTD-DFT, PBEh-3c, B97-3c, D3        
  Giovanni Bistoni       : ETS/NOCV, ADLD/ADEX, COVALED                  
  Martin Brehm           : Molecular dynamics                            
  Ronald Cardenas        : ETS/NOCV                                      
  Martina Colucci        : COVALED                                       
  Sebastian Ehlert       : rSCAN, r2SCAN, r2SCAN-3c, D4, dhf basis sets  
  Marvin Friede          : D4 for Fr, Ra, Ac-Lr                          
  Lars Goerigk           : TD-DFT with DH, B97 family of functionals     
  Stefan Grimme          : VdW corrections, initial TS optimization, DFT functionals, gCP, sTDA/sTD-DF 
  Waldemar Hujo          : DFT-NL                                        
  H. Jonsson             : NEB                                           
  Holger Kruse           : gCP                                           
  Marcel Mueller         : wB97X-3c, vDZP basis set                      
  Hagen Neugebauer       : wr2SCAN, Native XTB                           
  Gianluca Regni         : ADLD/ADEX                                     
  Tobias Risthaus        : pre 6.0 range-separated hybrid DFT and stability analysis
  Lukas Wittmann         : regularized MP2, r2SCAN double-hybrids, wr2SCAN        
                                                                         
We gratefully acknowledge several colleagues who have allowed us to      
interface, adapt or use parts of their codes:                            
  Ed Valeev, F. Pavosevic, A. Kumar             : LibInt (2-el integral package), F12 methods 
  Garnet Chan, S. Sharma, J. Yang, R. Olivares  : DMRG                   
  Ulf Ekstrom                                   : XCFun DFT Library      
  Mihaly Kallay                                 : mrcc  (arbitrary order and MRCC methods)
  Frank Weinhold                                : gennbo (NPA and NBO analysis)           
  Simon Mueller                                 : openCOSMO-RS                            
  Christopher J. Cramer and Donald G. Truhlar   : smd solvation model                     
  S Lehtola, MJT Oliveira, MAL Marques          : LibXC Library                           
  Liviu Ungur et al                             : ANISO software                          


 Your calculation uses the libint2 library for the computation of 2-el integrals
 For citations please refer to: http://libint.valeyev.net

 Your ORCA version has been built with support for libXC version: 7.0.0
 For citations please refer to: https://libxc.gitlab.io

 This ORCA versions uses:
   CBLAS   interface :  Fast vector & matrix operations
   LAPACKE interface :  Fast linear algebra routines
   Shared memory     :  Shared parallel matrices


  ***********************************
  * Starting time: Wed Jul 22 10:11:48 2026
  * Host name:     DESKTOP-19Q153E
  * Process ID:    44936
  * Working dir.:  C:\Users\ysm04\Documents\etc\uv_vis\calculations\02_tddft_orca\enolB\enolB_c000\camb3lyp_def2svp\none\dftopt22
  ***********************************

NOTE: MaxCore=2500 MB was set to SCF,MP2,MDCI,CIPSI,MRCI,RASCI and CIS
      => If you want to overwrite this, your respective input block should be placed after the MaxCore statement
XCFun DFT library Copyright 2009-2010 Ulf Ekstrom and contributors.
See http://admol.org/xcfun for more information.
This is free software; see the source code for copying conditions.
There is ABSOLUTELY NO WARRANTY; not even for MERCHANTABILITY or FITNESS FOR A PARTICULAR PURPOSE.
For details see the documentation.
Scientific users of this library should cite U. Ekstrom, L. Visscher, R. Bast, A. J. Thorvaldsen and K. Ruud;
J.Chem.Theor.Comp. 2010, DOI: 10.1021/ct100117s
XCFun Version 0.99 

================================================================================

----- Orbital basis set information -----
Your calculation utilizes the basis: def2-SVP
   F. Weigend and R. Ahlrichs, Phys. Chem. Chem. Phys. 7, 3297 (2005).

----- AuxJ basis set information -----
Your calculation utilizes the auxiliary basis: def2/J
   H-Rn: F. Weigend, Phys. Chem. Chem. Phys. 8, 1057 (2006).
   Fr-Lr: K. Eichkorn, F. Weigend, O. Treutler, R. Ahlrichs; Theor. Chem. Acc. 97, 119 (1997).

================================================================================
                                        WARNINGS
                       Please study these warnings very carefully!
================================================================================


WARNING: CIS/ROCIS methods need fully converged wavefunctions
  ===> : Setting SCFConvForced true
         You can overwrite this default with %scf ConvForced false 


================================================================================
                                       INPUT FILE
================================================================================
NAME = td.inp
|  1> # enolB / enolB_c000 / camb3lyp_def2svp / solvent=none
|  2> ! CAM-B3LYP def2-SVP RIJCOSX def2/J TightSCF
|  3> %pal nprocs 4 end
|  4> %maxcore 2500
|  5> %scf
|  6>   MaxIter 300
|  7> end
|  8> %tddft
|  9>   nroots 22
| 10>   tda    true
| 11>   maxdim 5
| 12> end
| 13> * xyz 0 1
| 14> C      8.6029047610     0.3946286797    -1.3211171061
| 15> O      7.3002552672     0.5791544019    -1.8609253365
| 16> C      6.2194253327     0.3388823598    -1.0919827419
| 17> C      6.2718852189    -0.0941049621     0.2453994767
| 18> C      5.0862660649    -0.3111423331     0.9477194495
| 19> C      3.8264348701    -0.1088949742     0.3533620313
| 20> C      3.7922764384     0.3253887526    -0.9917041617
| 21> C      4.9631148637     0.5454868799    -1.7010929868
| 22> C      2.6035599003    -0.3517272891     1.1392065429
| 23> O      2.8008264536    -0.7458162449     2.3862660789
| 24> C      1.3102974701    -0.1938427190     0.6537151369
| 25> C      0.1840128949    -0.4593591976     1.5041707958
| 26> O      0.3502920622    -0.8381374375     2.6981795308
| 27> C     -1.2135460400    -0.2984868342     0.9987740294
| 28> C     -1.5261565897     0.1543845112    -0.2936260151
| 29> C     -2.8548753066     0.2828088934    -0.7085302292
| 30> C     -3.9275787622    -0.0346195232     0.1431193246
| 31> C     -5.4014507476     0.0935653230    -0.2843200284
| 32> C     -6.0879091643    -1.2889651079    -0.1736772905
| 33> C     -6.1179461430     1.0975641075     0.6501775392
| 34> C     -5.5480990988     0.5903074716    -1.7342328748
| 35> C     -3.6034565258    -0.4865965988     1.4401043086
| 36> C     -2.2826621565    -0.6151229115     1.8591162610
| 37> H      8.7778324617     1.0581530718    -0.4573938451
| 38> H      8.7656729357    -0.6519801927    -1.0128331962
| 39> H      9.3076787891     0.6499786416    -2.1230689396
| 40> H      7.2261212201    -0.2634533972     0.7447961579
| 41> H      5.1356904985    -0.6465492554     1.9846328135
| 42> H      2.8393879652     0.4958326063    -1.4957659999
| 43> H      4.9362727356     0.8815672321    -2.7401348740
| 44> H      1.8614298432    -0.8672217861     2.7790771668
| 45> H      1.1599898814     0.1249365988    -0.3726689426
| 46> H     -0.7364909139     0.4182244406    -0.9992371138
| 47> H     -3.0429282612     0.6396788481    -1.7214116767
| 48> H     -5.6001511980    -2.0260654653    -0.8324125471
| 49> H     -6.0606823386    -1.6808269307     0.8548247017
| 50> H     -7.1456931820    -1.2107398840    -0.4747693273
| 51> H     -7.1763455961     1.1978943234     0.3578614300
| 52> H     -6.0898800888     0.7712601765     1.7013702801
| 53> H     -5.6518158747     2.0946873083     0.5904748489
| 54> H     -5.0755850971    -0.0975578220    -2.4534471142
| 55> H     -6.6166454636     0.6597317731    -1.9929582118
| 56> H     -5.1064302887     1.5897659024    -1.8748230872
| 57> H     -4.3995330856    -0.7458956560     2.1422933363
| 58> H     -2.0557660358    -0.9667757912     2.8672670755
| 59> *
| 60> 
| 61>                          ****END OF INPUT****
================================================================================

                       ****************************
                       * Single Point Calculation *
                       ****************************

---------------------------------
CARTESIAN COORDINATES (ANGSTROEM)
---------------------------------
  C      8.602905    0.394629   -1.321117
  O      7.300255    0.579154   -1.860925
  C      6.219425    0.338882   -1.091983
  C      6.271885   -0.094105    0.245399
  C      5.086266   -0.311142    0.947719
  C      3.826435   -0.108895    0.353362
  C      3.792276    0.325389   -0.991704
  C      4.963115    0.545487   -1.701093
  C      2.603560   -0.351727    1.139207
  O      2.800826   -0.745816    2.386266
  C      1.310297   -0.193843    0.653715
  C      0.184013   -0.459359    1.504171
  O      0.350292   -0.838137    2.698180
  C     -1.213546   -0.298487    0.998774
  C     -1.526157    0.154385   -0.293626
  C     -2.854875    0.282809   -0.708530
  C     -3.927579   -0.034620    0.143119
  C     -5.401451    0.093565   -0.284320
  C     -6.087909   -1.288965   -0.173677
  C     -6.117946    1.097564    0.650178
  C     -5.548099    0.590307   -1.734233
  C     -3.603457   -0.486597    1.440104
  C     -2.282662   -0.615123    1.859116
  H      8.777832    1.058153   -0.457394
  H      8.765673   -0.651980   -1.012833
  H      9.307679    0.649979   -2.123069
  H      7.226121   -0.263453    0.744796
  H      5.135690   -0.646549    1.984633
  H      2.839388    0.495833   -1.495766
  H      4.936273    0.881567   -2.740135
  H      1.861430   -0.867222    2.779077
  H      1.159990    0.124937   -0.372669
  H     -0.736491    0.418224   -0.999237
  H     -3.042928    0.639679   -1.721412
  H     -5.600151   -2.026065   -0.832413
  H     -6.060682   -1.680827    0.854825
  H     -7.145693   -1.210740   -0.474769
  H     -7.176346    1.197894    0.357861
  H     -6.089880    0.771260    1.701370
  H     -5.651816    2.094687    0.590475
  H     -5.075585   -0.097558   -2.453447
  H     -6.616645    0.659732   -1.992958
  H     -5.106430    1.589766   -1.874823
  H     -4.399533   -0.745896    2.142293
  H     -2.055766   -0.966776    2.867267

----------------------------
CARTESIAN COORDINATES (A.U.)
----------------------------
  NO LB      ZA    FRAG     MASS         X           Y           Z
   0 C     6.0000    0    12.011   16.257134    0.745740   -2.496550
   1 O     8.0000    0    15.999   13.795483    1.094443   -3.516639
   2 C     6.0000    0    12.011   11.753011    0.640395   -2.063548
   3 C     6.0000    0    12.011   11.852145   -0.177833    0.463738
   4 C     6.0000    0    12.011    9.611650   -0.587974    1.790930
   5 C     6.0000    0    12.011    7.230914   -0.205782    0.667757
   6 C     6.0000    0    12.011    7.166364    0.614896   -1.874049
   7 C     6.0000    0    12.011    9.378928    1.030821   -3.214600
   8 C     6.0000    0    12.011    4.920015   -0.664668    2.152788
   9 O     8.0000    0    15.999    5.292795   -1.409388    4.509389
  10 C     6.0000    0    12.011    2.476103   -0.366310    1.235343
  11 C     6.0000    0    12.011    0.347734   -0.868063    2.842471
  12 O     8.0000    0    15.999    0.661956   -1.583850    5.098820
  13 C     6.0000    0    12.011   -2.293270   -0.564058    1.887409
  14 C     6.0000    0    12.011   -2.884018    0.291744   -0.554873
  15 C     6.0000    0    12.011   -5.394932    0.534431   -1.338928
  16 C     6.0000    0    12.011   -7.422048   -0.065421    0.270456
  17 C     6.0000    0    12.011  -10.207263    0.176813   -0.537287
  18 C     6.0000    0    12.011  -11.504481   -2.435791   -0.328203
  19 C     6.0000    0    12.011  -11.561243    2.074096    1.228657
  20 C     6.0000    0    12.011  -10.484388    1.115519   -3.277225
  21 C     6.0000    0    12.011   -6.809546   -0.919534    2.721403
  22 C     6.0000    0    12.011   -4.313606   -1.162414    3.513221
  23 H     1.0000    0     1.008   16.587699    1.999620   -0.864349
  24 H     1.0000    0     1.008   16.564721   -1.232064   -1.913977
  25 H     1.0000    0     1.008   17.588964    1.228282   -4.012019
  26 H     1.0000    0     1.008   13.655390   -0.497855    1.407461
  27 H     1.0000    0     1.008    9.705049   -1.221801    3.750412
  28 H     1.0000    0     1.008    5.365666    0.936988   -2.826588
  29 H     1.0000    0     1.008    9.328204    1.665921   -5.178104
  30 H     1.0000    0     1.008    3.517593   -1.638812    5.251695
  31 H     1.0000    0     1.008    2.192063    0.236096   -0.704242
  32 H     1.0000    0     1.008   -1.391766    0.790330   -1.888284
  33 H     1.0000    0     1.008   -5.750301    1.208818   -3.252997
  34 H     1.0000    0     1.008  -10.582752   -3.828709   -1.573032
  35 H     1.0000    0     1.008  -11.453030   -3.176303    1.615385
  36 H     1.0000    0     1.008  -13.503403   -2.287967   -0.897184
  37 H     1.0000    0     1.008  -13.561328    2.263692    0.676260
  38 H     1.0000    0     1.008  -11.508206    1.457471    3.215124
  39 H     1.0000    0     1.008  -10.680384    3.958385    1.115836
  40 H     1.0000    0     1.008   -9.591466   -0.184358   -4.636343
  41 H     1.0000    0     1.008  -12.503648    1.246712   -3.766145
  42 H     1.0000    0     1.008   -9.649755    3.004222   -3.542902
  43 H     1.0000    0     1.008   -8.313913   -1.409539    4.048348
  44 H     1.0000    0     1.008   -3.884835   -1.826941    5.418350

--------------------------------
INTERNAL COORDINATES (ANGSTROEM)
--------------------------------
 C      0   0   0     0.000000000000     0.00000000     0.00000000
 O      1   0   0     1.422089438628     0.00000000     0.00000000
 C      2   1   0     1.348034389515   119.65589066     0.00000000
 C      3   2   1     1.406705818291   124.55998120     0.00000000
 C      4   3   2     1.395009441881   119.65883397   179.96101468
 C      5   4   3     1.407600573367   121.71821545     0.03292513
 C      6   5   4     1.413850139644   117.86979193     0.00000000
 C      7   6   5     1.386556276888   121.00321134   359.95695184
 C      6   5   4     1.473751105626   119.59276372   180.03692931
 O      9   6   5     1.322640421454   115.34669233     0.43112320
 C      9   6   5     1.390380219991   124.53493759   180.45543041
 C     11   9   6     1.436067816120   120.11376762   179.91368222
 O     12  11   9     1.263637042729   120.78374098     0.00000000
 C     12  11   9     1.494816639362   120.87262459   180.15551335
 C     14  12  11     1.404676363541   123.63100133   357.83294622
 C     15  14  12     1.397902628033   120.94637547   179.93982107
 C     16  15  14     1.405973138367   121.64634200   359.93939324
 C     17  16  15     1.539946227839   122.90851067   180.10992946
 C     18  17  16     1.547532670309   109.28942401   120.65047137
 C     18  17  16     1.547470489139   109.24029831   240.23189292
 C     18  17  16     1.539644687342   112.29703135     0.49865351
 C     17  16  15     1.411208187943   116.98664841     0.15931478
 C     22  17  16     1.391613378523   121.62086360   359.90718368
 H      1   2   3     1.103123833020   111.37175887   299.02009780
 H      1   2   3     1.103142139339   111.36719985    61.15068088
 H      1   2   3     1.097741671333   106.29654279   180.07838695
 H      4   3   2     1.090248725590   121.05999863     0.00000000
 H      5   4   3     1.090930750600   119.19951616   180.02152441
 H      7   6   5     1.091387138623   120.56059425   179.99318919
 H      8   7   6     1.092372897106   120.97935307   180.03491860
 H     10   9   6     1.025429591850   105.05958269   180.07531438
 H     11   9   6     1.085208230400   119.50104016     0.29445565
 H     15  14  12     1.091361723028   120.78227926   359.74831780
 H     16  15  14     1.090251762205   118.01888538   179.93497982
 H     19  18  17     1.102341557257   111.00037865   299.33262292
 H     19  18  17     1.100960188274   111.95006217    60.12414933
 H     19  18  17     1.102579987293   110.03862320   179.85783827
 H     20  18  17     1.102598867332   110.08338810   180.15659754
 H     20  18  17     1.101030488817   111.86803615   299.90235359
 H     20  18  17     1.102314163852   111.00124887    60.61527426
 H     21  18  17     1.101679293668   111.86916699    60.51724057
 H     21  18  17     1.101612394344   109.50532883   179.69146394
 H     21  18  17     1.101705087823   112.00459387   298.92610144
 H     22  17  16     1.092722892938   119.95153077   179.94275755
 H     23  22  17     1.091562944666   120.33987609   179.99824006

---------------------------
INTERNAL COORDINATES (A.U.)
---------------------------
 C      0   0   0     0.000000000000     0.00000000     0.00000000
 O      1   0   0     2.687359576949     0.00000000     0.00000000
 C      2   1   0     2.547415815292   119.65589066     0.00000000
 C      3   2   1     2.658288747564   124.55998120     0.00000000
 C      4   3   2     2.636185799389   119.65883397   179.96101468
 C      5   4   3     2.659979589614   121.71821545     0.03292513
 C      6   5   4     2.671789558333   117.86979193     0.00000000
 C      7   6   5     2.620211632587   121.00321134   359.95695184
 C      6   5   4     2.784985979197   119.59276372   180.03692931
 O      9   6   5     2.499428170201   115.34669233     0.43112320
 C      9   6   5     2.627437837804   124.53493759   180.45543041
 C     11   9   6     2.713774882206   120.11376762   179.91368222
 O     12  11   9     2.387927943435   120.78374098     0.00000000
 C     12  11   9     2.824794068822   120.87262459   180.15551335
 C     14  12  11     2.654453633886   123.63100133   357.83294622
 C     15  14  12     2.641653128871   120.94637547   179.93982107
 C     16  15  14     2.656904183163   121.64634200   359.93939324
 C     17  16  15     2.910076631581   122.90851067   180.10992946
 C     18  17  16     2.924412930179   109.28942401   120.65047137
 C     18  17  16     2.924295424799   109.24029831   240.23189292
 C     18  17  16     2.909506802624   112.29703135     0.49865351
 C     17  16  15     2.666796993160   116.98664841     0.15931478
 C     22  17  16     2.629768169710   121.62086360   359.90718368
 H      1   2   3     2.084601936209   111.37175887   299.02009780
 H      1   2   3     2.084636530138   111.36719985    61.15068088
 H      1   2   3     2.074431124612   106.29654279   180.07838695
 H      4   3   2     2.060271509222   121.05999863     0.00000000
 H      5   4   3     2.061560349708   119.19951616   180.02152441
 H      7   6   5     2.062422798081   120.56059425   179.99318919
 H      8   7   6     2.064285611649   120.97935307   180.03491860
 H     10   9   6     1.937781098216   105.05958269   180.07531438
 H     11   9   6     2.050746353734   119.50104016     0.29445565
 H     15  14  12     2.062374769568   120.78227926   359.74831780
 H     16  15  14     2.060277247592   118.01888538   179.93497982
 H     19  18  17     2.083123649256   111.00037865   299.33262292
 H     19  18  17     2.080513240189   111.95006217    60.12414933
 H     19  18  17     2.083574216727   110.03862320   179.85783827
 H     20  18  17     2.083609894830   110.08338810   180.15659754
 H     20  18  17     2.080646088962   111.86803615   299.90235359
 H     20  18  17     2.083071883222   111.00124887    60.61527426
 H     21  18  17     2.081872152445   111.86916699    60.51724057
 H     21  18  17     2.081745731043   109.50532883   179.69146394
 H     21  18  17     2.081920896333   112.00459387   298.92610144
 H     22  17  16     2.064947007918   119.95153077   179.94275755
 H     23  22  17     2.062755023355   120.33987609   179.99824006

---------------------
BASIS SET INFORMATION
---------------------
There are 3 groups of distinct atoms

 Group   1 Type C   : 7s4p1d contracted to 3s2p1d pattern {511/31/1}
 Group   2 Type O   : 7s4p1d contracted to 3s2p1d pattern {511/31/1}
 Group   3 Type H   : 4s1p contracted to 2s1p pattern {31/1}

Atom   0C    basis set group =>   1
Atom   1O    basis set group =>   2
Atom   2C    basis set group =>   1
Atom   3C    basis set group =>   1
Atom   4C    basis set group =>   1
Atom   5C    basis set group =>   1
Atom   6C    basis set group =>   1
Atom   7C    basis set group =>   1
Atom   8C    basis set group =>   1
Atom   9O    basis set group =>   2
Atom  10C    basis set group =>   1
Atom  11C    basis set group =>   1
Atom  12O    basis set group =>   2
Atom  13C    basis set group =>   1
Atom  14C    basis set group =>   1
Atom  15C    basis set group =>   1
Atom  16C    basis set group =>   1
Atom  17C    basis set group =>   1
Atom  18C    basis set group =>   1
Atom  19C    basis set group =>   1
Atom  20C    basis set group =>   1
Atom  21C    basis set group =>   1
Atom  22C    basis set group =>   1
Atom  23H    basis set group =>   3
Atom  24H    basis set group =>   3
Atom  25H    basis set group =>   3
Atom  26H    basis set group =>   3
Atom  27H    basis set group =>   3
Atom  28H    basis set group =>   3
Atom  29H    basis set group =>   3
Atom  30H    basis set group =>   3
Atom  31H    basis set group =>   3
Atom  32H    basis set group =>   3
Atom  33H    basis set group =>   3
Atom  34H    basis set group =>   3
Atom  35H    basis set group =>   3
Atom  36H    basis set group =>   3
Atom  37H    basis set group =>   3
Atom  38H    basis set group =>   3
Atom  39H    basis set group =>   3
Atom  40H    basis set group =>   3
Atom  41H    basis set group =>   3
Atom  42H    basis set group =>   3
Atom  43H    basis set group =>   3
Atom  44H    basis set group =>   3
---------------------------------
AUXILIARY/J BASIS SET INFORMATION
---------------------------------
There are 3 groups of distinct atoms

 Group   1 Type C   : 12s5p4d2f1g contracted to 6s4p3d1f1g pattern {711111/2111/211/2/1}
 Group   2 Type O   : 12s5p4d2f1g contracted to 6s4p3d1f1g pattern {711111/2111/211/2/1}
 Group   3 Type H   : 5s2p1d contracted to 3s1p1d pattern {311/2/1}

Atom   0C    basis set group =>   1
Atom   1O    basis set group =>   2
Atom   2C    basis set group =>   1
Atom   3C    basis set group =>   1
Atom   4C    basis set group =>   1
Atom   5C    basis set group =>   1
Atom   6C    basis set group =>   1
Atom   7C    basis set group =>   1
Atom   8C    basis set group =>   1
Atom   9O    basis set group =>   2
Atom  10C    basis set group =>   1
Atom  11C    basis set group =>   1
Atom  12O    basis set group =>   2
Atom  13C    basis set group =>   1
Atom  14C    basis set group =>   1
Atom  15C    basis set group =>   1
Atom  16C    basis set group =>   1
Atom  17C    basis set group =>   1
Atom  18C    basis set group =>   1
Atom  19C    basis set group =>   1
Atom  20C    basis set group =>   1
Atom  21C    basis set group =>   1
Atom  22C    basis set group =>   1
Atom  23H    basis set group =>   3
Atom  24H    basis set group =>   3
Atom  25H    basis set group =>   3
Atom  26H    basis set group =>   3
Atom  27H    basis set group =>   3
Atom  28H    basis set group =>   3
Atom  29H    basis set group =>   3
Atom  30H    basis set group =>   3
Atom  31H    basis set group =>   3
Atom  32H    basis set group =>   3
Atom  33H    basis set group =>   3
Atom  34H    basis set group =>   3
Atom  35H    basis set group =>   3
Atom  36H    basis set group =>   3
Atom  37H    basis set group =>   3
Atom  38H    basis set group =>   3
Atom  39H    basis set group =>   3
Atom  40H    basis set group =>   3
Atom  41H    basis set group =>   3
Atom  42H    basis set group =>   3
Atom  43H    basis set group =>   3
Atom  44H    basis set group =>   3


           ************************************************************
           *        Program running with 4 parallel MPI-processes     *
           *              working on a common directory               *
           ************************************************************
------------------------------------------------------------------------------
                             ORCA STARTUP CALCULATIONS
                           -- RI-GTO INTEGRALS CHOSEN --
------------------------------------------------------------------------------
------------------------------------------------------------------------------
                   ___                                                        
                  /   \      - P O W E R E D   B Y -                         
                 /     \                                                     
                 |  |  |   _    _      __       _____    __    __             
                 |  |  |  | |  | |    /  \     |  _  \  |  |  /  |          
                  \  \/   | |  | |   /    \    | | | |  |  | /  /          
                 / \  \   | |__| |  /  /\  \   | |_| |  |  |/  /          
                |  |  |   |  __  | /  /__\  \  |    /   |      \           
                |  |  |   | |  | | |   __   |  |    \   |  |\   \          
                \     /   | |  | | |  |  |  |  | |\  \  |  | \   \       
                 \___/    |_|  |_| |__|  |__|  |_| \__\ |__|  \__/        
                                                                              
                      - O R C A' S   B I G   F R I E N D -                    
                                      &                                       
                       - I N T E G R A L  F E E D E R -                       
                                                                              
 v1 FN, 2020, v2 2021, v3 2022-2024                                           
------------------------------------------------------------------------------


----------------------
SHARK INTEGRAL PACKAGE
----------------------

Number of atoms                             ...     45
Number of basis functions                   ...    432
Number of shells                            ...    204
Maximum angular momentum                    ...      2
Integral batch strategy                     ... SHARK/LIBINT Hybrid
RI-J (if used) integral strategy            ... SPLIT-RIJ (Revised 2003 algorithm where possible)
Printlevel                                  ...      1
Contraction scheme used                     ... SEGMENTED contraction
Prescreening option                         ... SCHWARTZ
   Thresh                                   ... 2.500e-11
   Tcut                                     ... 2.500e-12
   Tpresel                                  ... 2.500e-12 
Coulomb Range Separation                    ... NOT USED
Exchange Range Separation                   ... Long Range
   Mu parameter                             ... 3.300e-01
   Scaling (regular/separated)              ... 1.900e-01 4.600e-01
Robust (split-)RI terms used:
  metric    (central integrals)             ... YES
  density   (r.h.s.  integrals)             ... YES
  potential (l.h.s.  integrals)             ... YES
Multipole approximations                    ... NOT USED
Finite Nucleus Model                        ... NOT USED
CABS basis                                  ... NOT available
Auxiliary Coulomb fitting basis             ... AVAILABLE
   # of basis functions in Aux-J            ...   1369
   # of shells in Aux-J                     ...    455
   Maximum angular momentum in Aux-J        ...      4
Auxiliary J/K fitting basis                 ... NOT available
Auxiliary Correlation fitting basis         ... NOT available
Auxiliary 'external' fitting basis          ... NOT available

Checking pre-screening integrals            ... done (  0.0 sec) Dimension = 204
   => SHARK Basis and OBASIS are compatible. Storing Pre-screening
Shell pair information
Shell pair cut-off parameter TPreSel        ...   2.5e-12
Total number of shell pairs                 ...     20910
Shell pairs after pre-screening             ...     12179
Total number of primitive shell pairs       ...     75056
Primitive shell pairs kept                  ...     28745
          la=0 lb=0:   3841 shell pairs
          la=1 lb=0:   4546 shell pairs
          la=1 lb=1:   1402 shell pairs
          la=2 lb=0:   1411 shell pairs
          la=2 lb=1:    844 shell pairs
          la=2 lb=2:    135 shell pairs

Checking whether 4 symmetric matrices of dimension 432 fit in memory
:Max Core in MB      =   2500.00
 MB in use           =     15.40
 MB left             =   2484.60
 MB needed           =      2.85
 Data fit in memory  = YES
Calculating RI/J V-Matrix + Cholesky decomp.... done (  0.2 sec)
Calculating Nuclear repulsion               ... done (  0.0 sec) ENN=   1725.879379378557 Eh

Diagonalization of the overlap matrix:
Smallest eigenvalue                        ... 2.690e-04
Time for diagonalization                   ...    0.036 sec
Threshold for overlap eigenvalues          ... 1.000e-07
Number of eigenvalues below threshold      ... 0
Time for construction of square roots      ...    0.019 sec
Total time needed                          ...    0.058 sec

-------------------
DFT GRID GENERATION
-------------------

General Integration Accuracy     IntAcc      ... 4.388
Radial Grid Type                 RadialGrid  ... OptM3 with GC (2021)
Angular Grid (max. ang.)         AngularGrid ... 4 (Lebedev-302)
Angular grid pruning method      GridPruning ... 4 (adaptive)
Weight generation scheme         WeightScheme... mBecke (2022)
Basis function cutoff            BFCut       ... 1.0000e-11
Integration weight cutoff        WCut        ... 1.0000e-14
Partially contracted basis set               ... off
Rotationally invariant grid construction     ... off
Angular grids for H and He will be reduced by one unit

Total number of grid points                  ...   207653
Total number of batches                      ...     3269
Average number of points per batch           ...       63
Average number of grid points per atom       ...     4615

--------------------
COSX GRID GENERATION
--------------------

GRIDX 1
-------
General Integration Accuracy     IntAcc      ... 3.816
Radial Grid Type                 RadialGrid  ... OptM3 with GC (2021)
Angular Grid (max. ang.)         AngularGrid ... 1 (Lebedev-50)
Angular grid pruning method      GridPruning ... 4 (adaptive)
Weight generation scheme         WeightScheme... mBecke (2022)
Basis function cutoff            BFCut       ... 1.0000e-11
Integration weight cutoff        WCut        ... 1.0000e-14
Partially contracted basis set               ... on
Rotationally invariant grid construction     ... off
Angular grids for H and He will be reduced by one unit

Total number of grid points                  ...    26503
Total number of batches                      ...      234
Average number of points per batch           ...      113
Average number of grid points per atom       ...      589
UseSFitting                                  ... on

GRIDX 2
-------
General Integration Accuracy     IntAcc      ... 4.020
Radial Grid Type                 RadialGrid  ... OptM3 with GC (2021)
Angular Grid (max. ang.)         AngularGrid ... 2 (Lebedev-110)
Angular grid pruning method      GridPruning ... 4 (adaptive)
Weight generation scheme         WeightScheme... mBecke (2022)
Basis function cutoff            BFCut       ... 1.0000e-11
Integration weight cutoff        WCut        ... 1.0000e-14
Partially contracted basis set               ... on
Rotationally invariant grid construction     ... off
Angular grids for H and He will be reduced by one unit

Total number of grid points                  ...    56823
Total number of batches                      ...      467
Average number of points per batch           ...      121
Average number of grid points per atom       ...     1263
UseSFitting                                  ... on

GRIDX 3
-------
General Integration Accuracy     IntAcc      ... 4.338
Radial Grid Type                 RadialGrid  ... OptM3 with GC (2021)
Angular Grid (max. ang.)         AngularGrid ... 3 (Lebedev-194)
Angular grid pruning method      GridPruning ... 4 (adaptive)
Weight generation scheme         WeightScheme... mBecke (2022)
Basis function cutoff            BFCut       ... 1.0000e-11
Integration weight cutoff        WCut        ... 1.0000e-14
Partially contracted basis set               ... on
Rotationally invariant grid construction     ... off
Angular grids for H and He will be reduced by one unit

Total number of grid points                  ...   124093
Total number of batches                      ...      991
Average number of points per batch           ...      125
Average number of grid points per atom       ...     2758
UseSFitting                                  ... on
Grids setup in   6.7 sec
Initializing property integral containers    ... done (  0.1 sec)

SHARK setup successfully completed in   7.4 seconds

Maximum memory used throughout the entire STARTUP-calculation: 57.8 MB


           ************************************************************
           *        Program running with 4 parallel MPI-processes     *
           *              working on a common directory               *
           ************************************************************
-------------------------------------------------------------------------------
                                 ORCA GUESS
                   Start orbitals & Density for SCF / CASSCF
-------------------------------------------------------------------------------

------------
SCF SETTINGS
------------
Hamiltonian:
 Density Functional     Method          .... DFT(GTOs)
 Exchange Functional    Exchange        .... WB88
 Correlation Functional Correlation     .... LYP
 LDA part of GGA corr.  LDAOpt          .... VWN-5
 Gradients option       PostSCFGGA      .... off
 Hybrid DFT is turned on
   Fraction HF Exchange ScalHFX         ....  0.190000
   Scaling of DF-GGA-X  ScalDFX         ....  0.350000
   Scaling of DF-GGA-C  ScalDFC         ....  0.810000
   Scaling of DF-LDA-C  ScalLDAC        ....  1.000000
   Perturbative correction              ....  0.000000
 Long-range corrected/Screened/Range-Separated Hybrid DFT is turned on
   Amount of maximum screened exact exchange              ....  0.460000
   Range separation parameter mu (erf(mu*r12)/r12)        ....  0.330000
 RI-approximation to the Coulomb term is turned on
   Number of AuxJ basis functions       .... 1369
   RIJ-COSX (HFX calculated with COS-X)).... on


General Settings:
 Integral files         IntName         .... td
 Hartree-Fock type      HFTyp           .... RHF
 Total Charge           Charge          ....    0
 Multiplicity           Mult            ....    1
 Number of Electrons    NEL             ....  166
 Basis Dimension        Dim             ....  432
 Nuclear Repulsion      ENuc            ....   1725.8793793786 Eh

Convergence Acceleration:
 AO-DIIS                CNVDIIS         .... on
   Start iteration      DIISMaxIt       ....    12
   Startup error        DIISStart       ....  0.200000
   # of expansion vecs  DIISMaxEq       ....     5
   Bias factor          DIISBfac        ....   1.050
   Max. coefficient     DIISMaxC        ....  10.000
 MO-DIIS                CNVKDIIS        .... off
 Trust-Rad. Augm. Hess. CNVTRAH         .... auto
   Auto Start mean grad. ratio tolernc. ....  1.125000
   Auto Start start iteration           ....    50
   Auto Start num. interpolation iter.  ....    10
   Max. Number of Micro iterations      ....    24
   Max. Number of Macro iterations      .... Maxiter - #DIIS iter
   Number of Davidson start vectors     ....     2
   Converg. threshold    (grad. norm)   ....   1.000e-05
   Grad. Scal. Fac. for Micro threshold ....   0.100
   Minimum threshold for Micro iter.    ....   1.000e-02
   NR start threshold (gradient norm)   ....   1.000e-04
   Initial trust radius                 ....   0.400
   Minimum AH scaling param. (alpha)    ....   1.000
   Maximum AH scaling param. (alpha)    .... 1000.000
   Quad. conv. algorithm                .... NR
   White noise on init. David. guess    .... on
   Maximum white noise                  ....   0.010
   Pseudo random numbers                .... off
   Inactive MOs                         .... canonical
   Orbital update algorithm             .... Taylor
   Preconditioner                       .... Diag
   Full preconditioner red. dimension   ....   250
 SOSCF                 CNVSOSCF           .... on
   Start iteration     SOSCFMaxIt         ....   150
   Startup grad/error  SOSCFStart         ....  0.003300
   Hessian update      SOSCFHessUp        .... L-BFGS
   Autom. constraints  SOSCFAutoConstrain .... off
 Level Shifting         CNVShift        .... on
   Level shift para.    LevelShift      ....    0.2500
   Turn off err/grad.   ShiftErr        ....    0.0010
 Zerner damping         CNVZerner       .... off
 Static damping         CNVDamp         .... on
   Fraction old density DampFac         ....    0.7000
   Max. Damping (<1)    DampMax         ....    0.9800
   Min. Damping (>=0)   DampMin         ....    0.0000
   Turn off err/grad.   DampErr         ....    0.1000

SCF Procedure:
 Maximum # iterations   MaxIter         ....   300
 SCF integral mode      SCFMode         .... Direct
   Integral package                     .... SHARK and LIBINT hybrid scheme
 Reset frequency        DirectResetFreq ....    20
 Integral Threshold     Thresh          ....  2.500e-11 Eh
 Primitive CutOff       TCut            ....  2.500e-12 Eh

Convergence Tolerance:
 Convergence Check Mode ConvCheckMode   .... Total+1el-Energy
 Convergence forced     ConvForced      .... 1
 Energy Change          TolE            ....  1.000e-08 Eh
 1-El. energy change                    ....  1.000e-05 Eh
 Orbital Gradient       TolG            ....  1.000e-05
 Orbital Rotation angle TolX            ....  1.000e-05
 DIIS Error             TolErr          ....  5.000e-07

------------------------------
INITIAL GUESS: MODEL POTENTIAL
------------------------------
Loading Hartree-Fock densities                     ... done
Calculating cut-offs                               ... done
Initializing the effective Hamiltonian             ... done
Setting up the integral package (SHARK)            ... done
Starting the Coulomb interaction                   ... done (   0.9 sec)
Making the grid                                    ... done (   1.0 sec)
Mapping shells                                     ... done
Starting the XC term evaluation                    ... done (   0.6 sec)
  promolecular density results
     # of electrons  =    165.990584059
     EX              =   -133.220254070
     EC              =     -5.542358700
     EX+EC           =   -138.762612770
Transforming the Hamiltonian                       ... done (   0.0 sec)
Diagonalizing the Hamiltonian                      ... done (   0.0 sec)
Back transforming the eigenvectors                 ... done (   0.0 sec)
Now organizing SCF variables                       ... done
                      ------------------
                      INITIAL GUESS DONE (   2.7 sec)
                      ------------------
             **** ENERGY FILE WAS UPDATED (td.en.tmp) ****
Finished Guess after   3.0 sec
Maximum memory used throughout the entire GUESS-calculation: 21.7 MB


           ************************************************************
           *        Program running with 4 parallel MPI-processes     *
           *              working on a common directory               *
           ************************************************************

-------------------------------------------------------------------------------------------
                                      ORCA LEAN-SCF
                              memory conserving SCF solver
-------------------------------------------------------------------------------------------

----------------------------------------D-I-I-S--------------------------------------------
Iteration    Energy (Eh)           Delta-E    RMSDP     MaxDP     DIISErr   Damp  Time(sec)
-------------------------------------------------------------------------------------------
               ***  Starting incremental Fock matrix formation  ***
    1    -999.3714911778063197     0.00e+00  3.54e-03  6.79e-02  2.11e-01  0.700  31.4
    2    -999.5544707993806242    -1.83e-01  2.60e-03  4.30e-02  9.65e-02  0.700  14.7
                               ***Turning on AO-DIIS***
    3    -999.6433700352579308    -8.89e-02  1.26e-03  1.77e-02  4.26e-02  0.700  12.9
    4    -999.6960425838340143    -5.27e-02  2.52e-03  2.87e-02  2.59e-02  0.000  14.2
    5    -999.8089591448090232    -1.13e-01  2.66e-04  5.68e-03  5.07e-03  0.000  16.7
    6    -999.8092830480229622    -3.24e-04  1.26e-04  3.17e-03  3.63e-03  0.000  13.4
                              *** Initializing SOSCF ***
---------------------------------------S-O-S-C-F--------------------------------------
Iteration    Energy (Eh)           Delta-E    RMSDP     MaxDP     MaxGrad    Time(sec)
--------------------------------------------------------------------------------------
    7    -999.8093508119375201    -6.78e-05  6.03e-05  1.46e-03  9.41e-04     9.3
               *** Restarting incremental Fock matrix formation ***
    8    -999.8092381990315971     1.13e-04  6.09e-05  9.86e-04  6.99e-04    23.8
    9    -999.8092488242416493    -1.06e-05  5.42e-05  1.31e-03  2.14e-04    16.4
   10    -999.8092499148749539    -1.09e-06  2.11e-05  6.21e-04  1.56e-04    15.7
   11    -999.8092515091864243    -1.59e-06  9.17e-06  1.89e-04  3.88e-05    13.1
   12    -999.8092515450232440    -3.58e-08  4.40e-06  1.09e-04  2.53e-05    11.3
   13    -999.8092516273397905    -8.23e-08  9.18e-07  2.00e-05  4.28e-06    10.3
   14    -999.8092516290046206    -1.66e-09  4.77e-07  9.89e-06  4.73e-06     9.6
                 **** Energy Check signals convergence ****

               *****************************************************
               *                     SUCCESS                       *
               *           SCF CONVERGED AFTER  14 CYCLES          *
               *****************************************************

Recomputing exchange energy using gridx3       ... done (   49.197 sec)
Old exchange energy                            :    -38.783855772 Eh
New exchange energy                            :    -38.783881765 Eh
Exchange energy change after final integration :     -0.000025993 Eh
Total energy after final integration           :   -999.809277631 Eh
             **** ENERGY FILE WAS UPDATED (td.en.tmp) ****

----------------
TOTAL SCF ENERGY
----------------

Total Energy       :       -999.80927763086345 Eh          -27206.19358 eV

Components:
Nuclear Repulsion  :       1725.87937937855736 Eh           46963.56549 eV
Electronic Energy  :      -2725.68863101635998 Eh          -74169.75837 eV
One Electron Energy:      -4784.50754770417188 Eh         -130193.06926 eV
Two Electron Energy:       2058.81891668781191 Eh           56023.31089 eV

Virial components:
Potential Energy   :      -1988.78193077695687 Eh          -54117.50762 eV
Kinetic Energy     :        988.97265314609342 Eh           26911.31404 eV
Virial Ratio       :          2.01095745615442

DFT components:
N(Alpha)           :       82.999929873618 electrons
N(Beta)            :       82.999929873618 electrons
N(Total)           :      165.999859747236 electrons
E(XC)              :     -102.999295937288 Eh       

---------------
SCF CONVERGENCE
---------------

  Last Energy change         ...    1.6648e-09  Tolerance :   1.0000e-08
  Last MAX-Density change    ...    9.8927e-06  Tolerance :   1.0000e-07
  Last RMS-Density change    ...    4.7679e-07  Tolerance :   5.0000e-09
  Last DIIS Error            ...    9.4144e-04  Tolerance :   5.0000e-07
  Last Orbital Gradient      ...    4.7257e-06  Tolerance :   1.0000e-05
  Last Orbital Rotation      ...    1.0838e-05  Tolerance :   1.0000e-05


----------------
ORBITAL ENERGIES
----------------

  NO   OCC          E(Eh)            E(eV) 
   0   2.0000     -19.248997      -523.7918 
   1   2.0000     -19.224368      -523.1216 
   2   2.0000     -19.187191      -522.1100 
   3   2.0000     -10.348360      -281.5932 
   4   2.0000     -10.344160      -281.4789 
   5   2.0000     -10.338737      -281.3313 
   6   2.0000     -10.329317      -281.0750 
   7   2.0000     -10.280961      -279.7592 
   8   2.0000     -10.280712      -279.7524 
   9   2.0000     -10.276917      -279.6491 
  10   2.0000     -10.275513      -279.6109 
  11   2.0000     -10.274505      -279.5835 
  12   2.0000     -10.272384      -279.5258 
  13   2.0000     -10.271709      -279.5074 
  14   2.0000     -10.269379      -279.4440 
  15   2.0000     -10.268008      -279.4067 
  16   2.0000     -10.264793      -279.3192 
  17   2.0000     -10.264359      -279.3074 
  18   2.0000     -10.263376      -279.2807 
  19   2.0000     -10.254692      -279.0443 
  20   2.0000     -10.254490      -279.0389 
  21   2.0000     -10.254456      -279.0379 
  22   2.0000     -10.245833      -278.8033 
  23   2.0000      -1.151531       -31.3348 
  24   2.0000      -1.138767       -30.9874 
  25   2.0000      -1.085520       -29.5385 
  26   2.0000      -0.942238       -25.6396 
  27   2.0000      -0.941042       -25.6071 
  28   2.0000      -0.896798       -24.4031 
  29   2.0000      -0.864703       -23.5298 
  30   2.0000      -0.840349       -22.8670 
  31   2.0000      -0.830751       -22.6059 
  32   2.0000      -0.820610       -22.3299 
  33   2.0000      -0.810749       -22.0616 
  34   2.0000      -0.785973       -21.3874 
  35   2.0000      -0.760694       -20.6995 
  36   2.0000      -0.758554       -20.6413 
  37   2.0000      -0.721485       -19.6326 
  38   2.0000      -0.703906       -19.1542 
  39   2.0000      -0.691452       -18.8154 
  40   2.0000      -0.672962       -18.3122 
  41   2.0000      -0.650191       -17.6926 
  42   2.0000      -0.641265       -17.4497 
  43   2.0000      -0.621845       -16.9213 
  44   2.0000      -0.617993       -16.8164 
  45   2.0000      -0.587220       -15.9791 
  46   2.0000      -0.568485       -15.4693 
  47   2.0000      -0.556800       -15.1513 
  48   2.0000      -0.553143       -15.0518 
  49   2.0000      -0.547765       -14.9055 
  50   2.0000      -0.541601       -14.7377 
  51   2.0000      -0.522129       -14.2079 
  52   2.0000      -0.518960       -14.1216 
  53   2.0000      -0.511022       -13.9056 
  54   2.0000      -0.510035       -13.8788 
  55   2.0000      -0.505644       -13.7593 
  56   2.0000      -0.500101       -13.6084 
  57   2.0000      -0.496858       -13.5202 
  58   2.0000      -0.490632       -13.3508 
  59   2.0000      -0.487669       -13.2701 
  60   2.0000      -0.484388       -13.1809 
  61   2.0000      -0.468770       -12.7559 
  62   2.0000      -0.460499       -12.5308 
  63   2.0000      -0.459018       -12.4905 
  64   2.0000      -0.452307       -12.3079 
  65   2.0000      -0.449080       -12.2201 
  66   2.0000      -0.443900       -12.0791 
  67   2.0000      -0.440488       -11.9863 
  68   2.0000      -0.431731       -11.7480 
  69   2.0000      -0.423993       -11.5374 
  70   2.0000      -0.418874       -11.3981 
  71   2.0000      -0.414016       -11.2659 
  72   2.0000      -0.397938       -10.8284 
  73   2.0000      -0.396350       -10.7852 
  74   2.0000      -0.395350       -10.7580 
  75   2.0000      -0.390718       -10.6320 
  76   2.0000      -0.382632       -10.4119 
  77   2.0000      -0.324784        -8.8378 
  78   2.0000      -0.322043        -8.7632 
  79   2.0000      -0.314093        -8.5469 
  80   2.0000      -0.309980        -8.4350 
  81   2.0000      -0.300194        -8.1687 
  82   2.0000      -0.267375        -7.2756 
  83   0.0000      -0.031250        -0.8504 
  84   0.0000       0.020122         0.5475 
  85   0.0000       0.029635         0.8064 
  86   0.0000       0.037957         1.0329 
  87   0.0000       0.088233         2.4009 
  88   0.0000       0.091183         2.4812 
  89   0.0000       0.096682         2.6309 
  90   0.0000       0.101537         2.7630 
  91   0.0000       0.129559         3.5255 
  92   0.0000       0.131376         3.5749 
  93   0.0000       0.140705         3.8288 
*Only the first 10 virtual orbitals were printed.

                    ********************************
                    * MULLIKEN POPULATION ANALYSIS *
                    ********************************

-----------------------
MULLIKEN ATOMIC CHARGES
-----------------------
   0 C :    0.161369
   1 O :   -0.303882
   2 C :    0.227183
   3 C :   -0.087081
   4 C :   -0.005358
   5 C :    0.029823
   6 C :   -0.002385
   7 C :   -0.020762
   8 C :    0.197570
   9 O :   -0.187474
  10 C :   -0.213715
  11 C :    0.215673
  12 O :   -0.318174
  13 C :    0.016067
  14 C :    0.005004
  15 C :   -0.034561
  16 C :    0.099870
  17 C :   -0.261191
  18 C :    0.063599
  19 C :    0.064829
  20 C :    0.076468
  21 C :   -0.039518
  22 C :   -0.004149
  23 H :    0.031875
  24 H :    0.032074
  25 H :    0.045189
  26 H :   -0.017085
  27 H :    0.009361
  28 H :   -0.013813
  29 H :   -0.009126
  30 H :    0.213283
  31 H :   -0.020422
  32 H :   -0.025939
  33 H :   -0.024006
  34 H :    0.016681
  35 H :    0.010768
  36 H :    0.008407
  37 H :    0.008532
  38 H :    0.010686
  39 H :    0.016573
  40 H :    0.014739
  41 H :    0.008757
  42 H :    0.014984
  43 H :   -0.013562
  44 H :    0.002841
Sum of atomic charges:    0.0000000

--------------------------------
MULLIKEN REDUCED ORBITAL CHARGES
--------------------------------
  0 C s       :     3.012229  s :     3.012229
      pz      :     0.996797  p :     2.773482
      px      :     0.752195
      py      :     1.024490
      dz2     :     0.006498  d :     0.052920
      dxz     :     0.014514
      dyz     :     0.007684
      dx2y2   :     0.015449
      dxy     :     0.008776

  1 O s       :     3.713305  s :     3.713305
      pz      :     1.628221  p :     4.573894
      px      :     1.171848
      py      :     1.773825
      dz2     :     0.002407  d :     0.016683
      dxz     :     0.006807
      dyz     :     0.002076
      dx2y2   :     0.002573
      dxy     :     0.002820

  2 C s       :     2.955056  s :     2.955056
      pz      :     0.937655  p :     2.741711
      px      :     0.864742
      py      :     0.939314
      dz2     :     0.015484  d :     0.076050
      dxz     :     0.024098
      dyz     :     0.010094
      dx2y2   :     0.011656
      dxy     :     0.014717

  3 C s       :     3.223171  s :     3.223171
      pz      :     0.928729  p :     2.831731
      px      :     0.841676
      py      :     1.061326
      dz2     :     0.009177  d :     0.032179
      dxz     :     0.008969
      dyz     :     0.005052
      dx2y2   :     0.005215
      dxy     :     0.003766

  4 C s       :     3.247454  s :     3.247454
      pz      :     0.851788  p :     2.722758
      px      :     0.952120
      py      :     0.918850
      dz2     :     0.007999  d :     0.035146
      dxz     :     0.010116
      dyz     :     0.003077
      dx2y2   :     0.006017
      dxy     :     0.007939

  5 C s       :     3.078733  s :     3.078733
      pz      :     0.907383  p :     2.853210
      px      :     0.897997
      py      :     1.047831
      dz2     :     0.008858  d :     0.038235
      dxz     :     0.012546
      dyz     :     0.005379
      dx2y2   :     0.005839
      dxy     :     0.005612

  6 C s       :     3.207349  s :     3.207349
      pz      :     0.954642  p :     2.759571
      px      :     0.852808
      py      :     0.952120
      dz2     :     0.008954  d :     0.035465
      dxz     :     0.010934
      dyz     :     0.005899
      dx2y2   :     0.005145
      dxy     :     0.004532

  7 C s       :     3.224635  s :     3.224635
      pz      :     0.827021  p :     2.764023
      px      :     0.920620
      py      :     1.016382
      dz2     :     0.007579  d :     0.032104
      dxz     :     0.009539
      dyz     :     0.003113
      dx2y2   :     0.005798
      dxy     :     0.006075

  8 C s       :     3.083313  s :     3.083313
      pz      :     0.849163  p :     2.636227
      px      :     0.954821
      py      :     0.832243
      dz2     :     0.022985  d :     0.082890
      dxz     :     0.023974
      dyz     :     0.016730
      dx2y2   :     0.007599
      dxy     :     0.011602

  9 O s       :     3.659222  s :     3.659222
      pz      :     1.311434  p :     4.513776
      px      :     1.528383
      py      :     1.673958
      dz2     :     0.004822  d :     0.014476
      dxz     :     0.003258
      dyz     :     0.002913
      dx2y2   :     0.002529
      dxy     :     0.000954

 10 C s       :     3.181580  s :     3.181580
      pz      :     0.880611  p :     3.005484
      px      :     0.926898
      py      :     1.197975
      dz2     :     0.006237  d :     0.026651
      dxz     :     0.008864
      dyz     :     0.002591
      dx2y2   :     0.005276
      dxy     :     0.003683

 11 C s       :     3.076864  s :     3.076864
      pz      :     0.881299  p :     2.616617
      px      :     0.939992
      py      :     0.795326
      dz2     :     0.023608  d :     0.090847
      dxz     :     0.031579
      dyz     :     0.018287
      dx2y2   :     0.007833
      dxy     :     0.009539

 12 O s       :     3.744794  s :     3.744794
      pz      :     1.345036  p :     4.558221
      px      :     1.740122
      py      :     1.473064
      dz2     :     0.006548  d :     0.015158
      dxz     :     0.002753
      dyz     :     0.004745
      dx2y2   :     0.000794
      dxy     :     0.000318

 13 C s       :     3.108004  s :     3.108004
      pz      :     0.903974  p :     2.837799
      px      :     0.922226
      py      :     1.011598
      dz2     :     0.009742  d :     0.038130
      dxz     :     0.011412
      dyz     :     0.005871
      dx2y2   :     0.006385
      dxy     :     0.004719

 14 C s       :     3.207510  s :     3.207510
      pz      :     0.923893  p :     2.752630
      px      :     0.870455
      py      :     0.958282
      dz2     :     0.007843  d :     0.034856
      dxz     :     0.011922
      dyz     :     0.004754
      dx2y2   :     0.004930
      dxy     :     0.005408

 15 C s       :     3.220042  s :     3.220042
      pz      :     0.858752  p :     2.780625
      px      :     0.930543
      py      :     0.991330
      dz2     :     0.008159  d :     0.033894
      dxz     :     0.009959
      dyz     :     0.003248
      dx2y2   :     0.006068
      dxy     :     0.006459

 16 C s       :     3.068437  s :     3.068437
      pz      :     0.932183  p :     2.790875
      px      :     0.927838
      py      :     0.930854
      dz2     :     0.009909  d :     0.040818
      dxz     :     0.012042
      dyz     :     0.005813
      dx2y2   :     0.006262
      dxy     :     0.006793

 17 C s       :     3.199116  s :     3.199116
      pz      :     1.023945  p :     3.011619
      px      :     0.977244
      py      :     1.010430
      dz2     :     0.011475  d :     0.050455
      dxz     :     0.008176
      dyz     :     0.010117
      dx2y2   :     0.011322
      dxy     :     0.009365

 18 C s       :     2.982719  s :     2.982719
      pz      :     0.999219  p :     2.925187
      px      :     0.977596
      py      :     0.948372
      dz2     :     0.006346  d :     0.028495
      dxz     :     0.002793
      dyz     :     0.007041
      dx2y2   :     0.007342
      dxy     :     0.004973

 19 C s       :     2.981762  s :     2.981762
      pz      :     0.975274  p :     2.924915
      px      :     0.976232
      py      :     0.973410
      dz2     :     0.008989  d :     0.028493
      dxz     :     0.002884
      dyz     :     0.004269
      dx2y2   :     0.007570
      dxy     :     0.004780

 20 C s       :     2.951868  s :     2.951868
      pz      :     0.968838  p :     2.943192
      px      :     0.986220
      py      :     0.988135
      dz2     :     0.007160  d :     0.028472
      dxz     :     0.004460
      dyz     :     0.006438
      dx2y2   :     0.006469
      dxy     :     0.003946

 21 C s       :     3.222652  s :     3.222652
      pz      :     0.914278  p :     2.782878
      px      :     0.879367
      py      :     0.989233
      dz2     :     0.007718  d :     0.033988
      dxz     :     0.011877
      dyz     :     0.004337
      dx2y2   :     0.005024
      dxy     :     0.005032

 22 C s       :     3.248778  s :     3.248778
      pz      :     0.863262  p :     2.720818
      px      :     0.930915
      py      :     0.926640
      dz2     :     0.007609  d :     0.034554
      dxz     :     0.010745
      dyz     :     0.003208
      dx2y2   :     0.005858
      dxy     :     0.007135

 23 H s       :     0.946228  s :     0.946228
      pz      :     0.010655  p :     0.021897
      px      :     0.002772
      py      :     0.008469

 24 H s       :     0.946031  s :     0.946031
      pz      :     0.005332  p :     0.021895
      px      :     0.002724
      py      :     0.013839

 25 H s       :     0.933675  s :     0.933675
      pz      :     0.009581  p :     0.021136
      px      :     0.006267
      py      :     0.005288

 26 H s       :     0.994225  s :     0.994225
      pz      :     0.005800  p :     0.022860
      px      :     0.011944
      py      :     0.005117

 27 H s       :     0.967832  s :     0.967832
      pz      :     0.014495  p :     0.022807
      px      :     0.003289
      py      :     0.005023

 28 H s       :     0.991266  s :     0.991266
      pz      :     0.005896  p :     0.022547
      px      :     0.012214
      py      :     0.004437

 29 H s       :     0.986656  s :     0.986656
      pz      :     0.014005  p :     0.022471
      px      :     0.002978
      py      :     0.005488

 30 H s       :     0.701929  s :     0.701929
      pz      :     0.016650  p :     0.084788
      px      :     0.054101
      py      :     0.014037

 31 H s       :     0.996694  s :     0.996694
      pz      :     0.013554  p :     0.023728
      px      :     0.003708
      py      :     0.006467

 32 H s       :     1.003369  s :     1.003369
      pz      :     0.008197  p :     0.022571
      px      :     0.009431
      py      :     0.004943

 33 H s       :     1.001288  s :     1.001288
      pz      :     0.013304  p :     0.022718
      px      :     0.003722
      py      :     0.005691

 34 H s       :     0.960946  s :     0.960946
      pz      :     0.007949  p :     0.022373
      px      :     0.006259
      py      :     0.008164

 35 H s       :     0.966585  s :     0.966585
      pz      :     0.012716  p :     0.022647
      px      :     0.004721
      py      :     0.005210

 36 H s       :     0.969052  s :     0.969052
      pz      :     0.005570  p :     0.022541
      px      :     0.013123
      py      :     0.003848

 37 H s       :     0.968932  s :     0.968932
      pz      :     0.004974  p :     0.022536
      px      :     0.013120
      py      :     0.004442

 38 H s       :     0.966677  s :     0.966677
      pz      :     0.012972  p :     0.022636
      px      :     0.004688
      py      :     0.004976

 39 H s       :     0.961055  s :     0.961055
      pz      :     0.004360  p :     0.022372
      px      :     0.006073
      py      :     0.011939

 40 H s       :     0.962645  s :     0.962645
      pz      :     0.007967  p :     0.022616
      px      :     0.006537
      py      :     0.008112

 41 H s       :     0.968735  s :     0.968735
      pz      :     0.004338  p :     0.022508
      px      :     0.013346
      py      :     0.004825

 42 H s       :     0.962402  s :     0.962402
      pz      :     0.003902  p :     0.022613
      px      :     0.006341
      py      :     0.012371

 43 H s       :     0.991191  s :     0.991191
      pz      :     0.008003  p :     0.022371
      px      :     0.009376
      py      :     0.004993

 44 H s       :     0.974283  s :     0.974283
      pz      :     0.013668  p :     0.022876
      px      :     0.004192
      py      :     0.005017



                     *******************************
                     * LOEWDIN POPULATION ANALYSIS *
                     *******************************

----------------------
LOEWDIN ATOMIC CHARGES
----------------------
   0 C :    0.079214
   1 O :   -0.098821
   2 C :    0.067530
   3 C :   -0.083024
   4 C :    0.019747
   5 C :   -0.073735
   6 C :    0.007587
   7 C :   -0.051363
   8 C :    0.130313
   9 O :   -0.034078
  10 C :   -0.190128
  11 C :    0.108120
  12 O :   -0.202610
  13 C :   -0.062260
  14 C :   -0.006190
  15 C :   -0.037749
  16 C :    0.008859
  17 C :   -0.047074
  18 C :   -0.040507
  19 C :   -0.040410
  20 C :   -0.047452
  21 C :   -0.028394
  22 C :    0.011335
  23 H :    0.019009
  24 H :    0.019043
  25 H :    0.031967
  26 H :    0.030633
  27 H :    0.038126
  28 H :    0.032284
  29 H :    0.036061
  30 H :    0.050122
  31 H :    0.022440
  32 H :    0.027782
  33 H :    0.027578
  34 H :    0.026187
  35 H :    0.021973
  36 H :    0.022679
  37 H :    0.022677
  38 H :    0.022078
  39 H :    0.026164
  40 H :    0.023398
  41 H :    0.025377
  42 H :    0.023305
  43 H :    0.026164
  44 H :    0.036042

-------------------------------
LOEWDIN REDUCED ORBITAL CHARGES
-------------------------------
  0 C s       :     2.845928  s :     2.845928
      pz      :     1.053592  p :     2.955752
      px      :     0.823713
      py      :     1.078446
      dz2     :     0.014059  d :     0.119106
      dxz     :     0.033424
      dyz     :     0.019291
      dx2y2   :     0.033527
      dxy     :     0.018804

  1 O s       :     3.423882  s :     3.423882
      pz      :     1.648129  p :     4.643654
      px      :     1.236569
      py      :     1.758956
      dz2     :     0.003984  d :     0.031285
      dxz     :     0.013313
      dyz     :     0.002441
      dx2y2   :     0.006138
      dxy     :     0.005410

  2 C s       :     2.839257  s :     2.839257
      pz      :     1.031011  p :     2.918361
      px      :     0.946327
      py      :     0.941023
      dz2     :     0.038354  d :     0.174852
      dxz     :     0.058580
      dyz     :     0.021465
      dx2y2   :     0.026536
      dxy     :     0.029917

  3 C s       :     2.856018  s :     2.856018
      pz      :     1.042932  p :     3.140892
      px      :     1.050873
      py      :     1.047087
      dz2     :     0.025805  d :     0.086115
      dxz     :     0.027189
      dyz     :     0.011826
      dx2y2   :     0.013255
      dxy     :     0.008039

  4 C s       :     2.857743  s :     2.857743
      pz      :     1.042742  p :     3.032347
      px      :     1.055785
      py      :     0.933820
      dz2     :     0.021102  d :     0.090163
      dxz     :     0.028268
      dyz     :     0.006222
      dx2y2   :     0.016919
      dxy     :     0.017652

  5 C s       :     2.845154  s :     2.845154
      pz      :     1.054252  p :     3.125953
      px      :     1.035832
      py      :     1.035869
      dz2     :     0.025433  d :     0.102628
      dxz     :     0.036525
      dyz     :     0.012377
      dx2y2   :     0.016069
      dxy     :     0.012225

  6 C s       :     2.856096  s :     2.856096
      pz      :     1.043009  p :     3.045601
      px      :     1.051324
      py      :     0.951268
      dz2     :     0.024318  d :     0.090716
      dxz     :     0.030407
      dyz     :     0.013419
      dx2y2   :     0.013063
      dxy     :     0.009509

  7 C s       :     2.859044  s :     2.859044
      pz      :     1.038646  p :     3.106998
      px      :     1.049305
      py      :     1.019046
      dz2     :     0.020413  d :     0.085321
      dxz     :     0.028094
      dyz     :     0.006236
      dx2y2   :     0.016818
      dxy     :     0.013760

  8 C s       :     2.851311  s :     2.851311
      pz      :     0.914225  p :     2.834799
      px      :     1.083255
      py      :     0.837318
      dz2     :     0.050786  d :     0.183577
      dxz     :     0.057328
      dyz     :     0.033375
      dx2y2   :     0.018344
      dxy     :     0.023743

  9 O s       :     3.421422  s :     3.421422
      pz      :     1.369281  p :     4.585904
      px      :     1.561166
      py      :     1.655457
      dz2     :     0.009857  d :     0.026753
      dxz     :     0.006505
      dyz     :     0.005060
      dx2y2   :     0.004318
      dxy     :     0.001013

 10 C s       :     2.854655  s :     2.854655
      pz      :     1.052410  p :     3.257366
      px      :     1.035105
      py      :     1.169851
      dz2     :     0.019226  d :     0.078108
      dxz     :     0.028193
      dyz     :     0.005848
      dx2y2   :     0.015886
      dxy     :     0.008954

 11 C s       :     2.858435  s :     2.858435
      pz      :     0.975939  p :     2.826490
      px      :     1.048213
      py      :     0.802338
      dz2     :     0.055083  d :     0.206955
      dxz     :     0.076809
      dyz     :     0.037155
      dx2y2   :     0.018213
      dxy     :     0.019695

 12 O s       :     3.535866  s :     3.535866
      pz      :     1.449406  p :     4.640160
      px      :     1.709678
      py      :     1.481077
      dz2     :     0.012363  d :     0.026584
      dxz     :     0.005012
      dyz     :     0.007210
      dx2y2   :     0.001426
      dxy     :     0.000573

 13 C s       :     2.855942  s :     2.855942
      pz      :     1.062530  p :     3.104125
      px      :     1.035267
      py      :     1.006328
      dz2     :     0.026921  d :     0.102194
      dxz     :     0.033771
      dyz     :     0.013779
      dx2y2   :     0.017132
      dxy     :     0.010591

 14 C s       :     2.857567  s :     2.857567
      pz      :     1.040551  p :     3.058532
      px      :     1.054457
      py      :     0.963524
      dz2     :     0.021281  d :     0.090091
      dxz     :     0.032944
      dyz     :     0.010811
      dx2y2   :     0.013176
      dxy     :     0.011880

 15 C s       :     2.855937  s :     2.855937
      pz      :     1.036142  p :     3.092841
      px      :     1.057923
      py      :     0.998776
      dz2     :     0.021574  d :     0.088972
      dxz     :     0.028518
      dyz     :     0.006826
      dx2y2   :     0.017432
      dxy     :     0.014622

 16 C s       :     2.862430  s :     2.862430
      pz      :     1.056060  p :     3.025808
      px      :     1.039451
      py      :     0.930297
      dz2     :     0.026591  d :     0.102904
      dxz     :     0.033038
      dyz     :     0.013497
      dx2y2   :     0.015806
      dxy     :     0.013972

 17 C s       :     2.844889  s :     2.844889
      pz      :     1.033814  p :     3.087518
      px      :     1.018099
      py      :     1.035605
      dz2     :     0.027096  d :     0.114668
      dxz     :     0.018078
      dyz     :     0.022087
      dx2y2   :     0.026004
      dxy     :     0.021402

 18 C s       :     2.842781  s :     2.842781
      pz      :     1.062052  p :     3.126512
      px      :     1.048138
      py      :     1.016323
      dz2     :     0.016241  d :     0.071214
      dxz     :     0.006832
      dyz     :     0.016724
      dx2y2   :     0.018212
      dxy     :     0.013205

 19 C s       :     2.842775  s :     2.842775
      pz      :     1.040736  p :     3.126422
      px      :     1.046947
      py      :     1.038739
      dz2     :     0.021596  d :     0.071213
      dxz     :     0.007617
      dyz     :     0.011573
      dx2y2   :     0.018168
      dxy     :     0.012259

 20 C s       :     2.839757  s :     2.839757
      pz      :     1.018716  p :     3.136118
      px      :     1.062607
      py      :     1.054794
      dz2     :     0.019072  d :     0.071578
      dxz     :     0.010498
      dyz     :     0.016072
      dx2y2   :     0.016071
      dxy     :     0.009865

 21 C s       :     2.856331  s :     2.856331
      pz      :     1.040754  p :     3.083035
      px      :     1.053468
      py      :     0.988813
      dz2     :     0.021100  d :     0.089027
      dxz     :     0.033579
      dyz     :     0.009891
      dx2y2   :     0.013415
      dxy     :     0.011042

 22 C s       :     2.859261  s :     2.859261
      pz      :     1.040890  p :     3.040294
      px      :     1.058794
      py      :     0.940610
      dz2     :     0.020052  d :     0.089111
      dxz     :     0.029828
      dyz     :     0.006655
      dx2y2   :     0.016659
      dxy     :     0.015918

 23 H s       :     0.917097  s :     0.917097
      pz      :     0.031226  p :     0.063894
      px      :     0.009461
      py      :     0.023207

 24 H s       :     0.917065  s :     0.917065
      pz      :     0.014112  p :     0.063891
      px      :     0.009318
      py      :     0.040461

 25 H s       :     0.905851  s :     0.905851
      pz      :     0.027806  p :     0.062182
      px      :     0.020734
      py      :     0.013641

 26 H s       :     0.899823  s :     0.899823
      pz      :     0.018339  p :     0.069544
      px      :     0.034390
      py      :     0.016815

 27 H s       :     0.892439  s :     0.892439
      pz      :     0.042259  p :     0.069435
      px      :     0.011428
      py      :     0.015749

 28 H s       :     0.900368  s :     0.900368
      pz      :     0.018234  p :     0.067348
      px      :     0.035321
      py      :     0.013793

 29 H s       :     0.896110  s :     0.896110
      pz      :     0.040106  p :     0.067828
      px      :     0.010136
      py      :     0.017586

 30 H s       :     0.700979  s :     0.700979
      pz      :     0.037145  p :     0.248899
      px      :     0.174652
      py      :     0.037102

 31 H s       :     0.902898  s :     0.902898
      pz      :     0.039495  p :     0.074662
      px      :     0.012690
      py      :     0.022477

 32 H s       :     0.904509  s :     0.904509
      pz      :     0.024439  p :     0.067709
      px      :     0.028021
      py      :     0.015248

 33 H s       :     0.904023  s :     0.904023
      pz      :     0.038512  p :     0.068399
      px      :     0.012162
      py      :     0.017725

 34 H s       :     0.910053  s :     0.910053
      pz      :     0.021706  p :     0.063761
      px      :     0.017072
      py      :     0.024982

 35 H s       :     0.913685  s :     0.913685
      pz      :     0.036132  p :     0.064342
[...]
  0-1A  ->  4-1A    5.010576   40413.0   247.4   0.016773711   0.13664  -0.29630  -0.07532   0.20779
  0-1A  ->  5-1A    5.290582   42671.4   234.3   0.108126155   0.83420   0.33927  -0.25083   0.81005
  0-1A  ->  6-1A    5.518268   44507.8   224.7   0.095597371   0.70711  -0.83267   0.03478  -0.11205
  0-1A  ->  7-1A    5.764052   46490.2   215.1   0.034521211   0.24446   0.41308   0.08710  -0.25736
  0-1A  ->  8-1A    6.183517   49873.4   200.5   0.159660232   1.05391   0.83153  -0.18634   0.57249
  0-1A  ->  9-1A    6.267974   50554.6   197.8   0.062560492   0.40739  -0.05983  -0.21022   0.59968
  0-1A  -> 10-1A    6.424899   51820.3   193.0   0.000315456   0.00200   0.02617   0.03629  -0.00135
  0-1A  -> 11-1A    6.548570   52817.8   189.3   0.066244803   0.41290   0.64072  -0.01705   0.04566
  0-1A  -> 12-1A    6.594016   53184.3   188.0   0.005628890   0.03484   0.18435   0.01215  -0.02663
  0-1A  -> 13-1A    6.648352   53622.6   186.5   0.067694452   0.41561  -0.22935  -0.18368   0.57382
  0-1A  -> 14-1A    6.852629   55270.2   180.9   0.000128078   0.00076  -0.01281   0.00816   0.02307
  0-1A  -> 15-1A    6.867408   55389.4   180.5   0.040345165   0.23980   0.26273   0.12656  -0.39338
  0-1A  -> 16-1A    7.006039   56507.5   177.0   0.000559614   0.00326   0.02336   0.04438   0.02730
  0-1A  -> 17-1A    7.137842   57570.6   173.7   0.000077937   0.00045  -0.01046  -0.00498  -0.01765
  0-1A  -> 18-1A    7.142957   57611.8   173.6   0.000617269   0.00353   0.02947  -0.04679  -0.02167
  0-1A  -> 19-1A    7.186861   57965.9   172.5   0.608986988   3.45868   1.85699   0.03291  -0.09583
  0-1A  -> 20-1A    7.217343   58211.8   171.8   0.004905228   0.02774   0.07672  -0.13394  -0.06257
  0-1A  -> 21-1A    7.412596   59786.6   167.3   0.000302589   0.00167   0.03930   0.00362  -0.01041
  0-1A  -> 22-1A    7.466502   60221.4   166.1   0.356827757   1.95067   1.38819   0.08141  -0.13026

----------------------------------------------------------------------------------------------------
                     ABSORPTION SPECTRUM VIA TRANSITION VELOCITY DIPOLE MOMENTS    
----------------------------------------------------------------------------------------------------
     Transition      Energy     Energy  Wavelength fosc(P2)      P2        PX        PY        PZ   
                      (eV)      (cm-1)    (nm)                 (au**2)    (au)      (au)      (au)  
----------------------------------------------------------------------------------------------------
  0-1A  ->  1-1A    4.135804   33357.5   299.8   0.571830116   0.13037   0.36044   0.00560  -0.02040
  0-1A  ->  2-1A    4.151415   33483.4   298.7   0.002604769   0.00060   0.02368   0.00591   0.00078
  0-1A  ->  3-1A    4.988612   40235.9   248.5   0.000588395   0.00016   0.00839  -0.00304   0.00906
  0-1A  ->  4-1A    5.010576   40413.0   247.4   0.003618261   0.00100   0.02764  -0.00535   0.01438
  0-1A  ->  5-1A    5.290582   42671.4   234.3   0.009880725   0.00288  -0.05368  -0.00043  -0.00003
  0-1A  ->  6-1A    5.518268   44507.8   224.7   0.073038150   0.02222   0.14826   0.00424  -0.01477
  0-1A  ->  7-1A    5.764052   46490.2   215.1   0.014527388   0.00462  -0.05928  -0.00945   0.03181
  0-1A  ->  8-1A    6.183517   49873.4   200.5   0.007884392   0.00269  -0.03161  -0.01251   0.03914
  0-1A  ->  9-1A    6.267974   50554.6   197.8   0.007562100   0.00261  -0.02115  -0.01524   0.04397
  0-1A  -> 10-1A    6.424899   51820.3   193.0   0.000050619   0.00002  -0.00351  -0.00195  -0.00135
  0-1A  -> 11-1A    6.548570   52817.8   189.3   0.031710005   0.01145  -0.10684  -0.00222   0.00523
  0-1A  -> 12-1A    6.594016   53184.3   188.0   0.000074229   0.00003   0.00512   0.00055  -0.00066
  0-1A  -> 13-1A    6.648352   53622.6   186.5   0.010953623   0.00401   0.06281  -0.00315   0.00773
  0-1A  -> 14-1A    6.852629   55270.2   180.9   0.000097822   0.00004   0.00156  -0.00475  -0.00346
  0-1A  -> 15-1A    6.867408   55389.4   180.5   0.011450923   0.00433  -0.04195  -0.01534   0.04838
  0-1A  -> 16-1A    7.006039   56507.5   177.0   0.000084477   0.00003  -0.00409  -0.00370  -0.00148
  0-1A  -> 17-1A    7.137842   57570.6   173.7   0.000023288   0.00001   0.00256   0.00072  -0.00144
  0-1A  -> 18-1A    7.142957   57611.8   173.6   0.001430650   0.00056  -0.00414   0.02238   0.00673
  0-1A  -> 19-1A    7.186861   57965.9   172.5   0.245287953   0.09718  -0.31102  -0.00646   0.02002
  0-1A  -> 20-1A    7.217343   58211.8   171.8   0.001033776   0.00041  -0.01266   0.01474   0.00581
  0-1A  -> 21-1A    7.412596   59786.6   167.3   0.000198700   0.00008  -0.00571   0.00695   0.00053
  0-1A  -> 22-1A    7.466502   60221.4   166.1   0.121422470   0.04998  -0.20762   0.02492  -0.07905

------------------------------------------------------------------------------------------
                     CD SPECTRUM VIA TRANSITION ELECTRIC DIPOLE MOMENTS    
------------------------------------------------------------------------------------------
     Transition      Energy     Energy  Wavelength    R        MX        MY        MZ   
                      (eV)      (cm-1)    (nm)   (1e40*cgs)   (au)      (au)      (au)  
------------------------------------------------------------------------------------------
  0-1A  ->  1-1A    4.135804   33357.5   299.8   -0.12566  -0.00214   0.35609   0.09352
  0-1A  ->  2-1A    4.151415   33483.4   298.7   -0.64254   0.03336  -0.03792   0.20165
  0-1A  ->  3-1A    4.988612   40235.9   248.5    0.18239  -0.00160  -0.21244  -0.06942
  0-1A  ->  4-1A    5.010576   40413.0   247.4    0.10451   0.00156  -0.05087  -0.01729
  0-1A  ->  5-1A    5.290582   42671.4   234.3    0.40019  -0.00414  -0.11947  -0.03630
  0-1A  ->  6-1A    5.518268   44507.8   224.7    0.92996   0.00299   0.12347   0.03374
  0-1A  ->  7-1A    5.764052   46490.2   215.1    0.99923  -0.00225  -0.09108  -0.02619
  0-1A  ->  8-1A    6.183517   49873.4   200.5    0.11752   0.00063   0.03821   0.01109
  0-1A  ->  9-1A    6.267974   50554.6   197.8   -2.84925   0.00067   0.06565   0.03316
  0-1A  -> 10-1A    6.424899   51820.3   193.0    0.37393   0.06590  -0.06287   0.17461
  0-1A  -> 11-1A    6.548570   52817.8   189.3    1.74109  -0.00596  -0.08281  -0.02815
  0-1A  -> 12-1A    6.594016   53184.3   188.0    0.16187   0.00121  -0.15078  -0.04751
  0-1A  -> 13-1A    6.648352   53622.6   186.5    0.15049  -0.00302  -0.10537  -0.03549
  0-1A  -> 14-1A    6.852629   55270.2   180.9   -0.74151  -0.02206  -0.01162   0.06003
  0-1A  -> 15-1A    6.867408   55389.4   180.5    1.02500  -0.00184  -0.19623  -0.05883
  0-1A  -> 16-1A    7.006039   56507.5   177.0    0.49832   0.03401   0.02436  -0.10743
  0-1A  -> 17-1A    7.137842   57570.6   173.7   -1.09288  -0.12550   0.03033  -0.06551
  0-1A  -> 18-1A    7.142957   57611.8   173.6   -0.89864   0.07460  -0.02345   0.06414
  0-1A  -> 19-1A    7.186861   57965.9   172.5    6.52362  -0.00638  -0.45983  -0.13716
  0-1A  -> 20-1A    7.217343   58211.8   171.8   -5.57619   0.09287   0.02714  -0.13324
  0-1A  -> 21-1A    7.412596   59786.6   167.3   -1.26388   0.00799   0.05754  -0.20744
  0-1A  -> 22-1A    7.466502   60221.4   166.1    6.48447   0.00210  -0.39344  -0.11791

------------------------------------------------------------------------------------------
                     CD SPECTRUM VIA TRANSITION VELOCITY DIPOLE MOMENTS    
------------------------------------------------------------------------------------------
     Transition      Energy     Energy  Wavelength    R        MX        MY        MZ   
                      (eV)      (cm-1)    (nm)   (1e40*cgs)   (au)      (au)      (au)  
------------------------------------------------------------------------------------------
  0-1A  ->  1-1A    4.135804   33357.5   299.8   -2.13391  -0.00214   0.35609   0.09352
  0-1A  ->  2-1A    4.151415   33483.4   298.7    2.23447   0.03336  -0.03792   0.20165
  0-1A  ->  3-1A    4.988612   40235.9   248.5    0.00637  -0.00160  -0.21244  -0.06942
  0-1A  ->  4-1A    5.010576   40413.0   247.4    0.17002   0.00156  -0.05087  -0.01729
  0-1A  ->  5-1A    5.290582   42671.4   234.3    0.66657  -0.00414  -0.11947  -0.03630
  0-1A  ->  6-1A    5.518268   44507.8   224.7    1.08915   0.00299   0.12347   0.03374
  0-1A  ->  7-1A    5.764052   46490.2   215.1    0.35846  -0.00225  -0.09108  -0.02619
  0-1A  ->  8-1A    6.183517   49873.4   200.5   -0.13259   0.00063   0.03821   0.01109
  0-1A  ->  9-1A    6.267974   50554.6   197.8    0.90784   0.00067   0.06565   0.03316
  0-1A  -> 10-1A    6.424899   51820.3   193.0   -0.68827   0.06590  -0.06287   0.17461
  0-1A  -> 11-1A    6.548570   52817.8   189.3    1.31962  -0.00596  -0.08281  -0.02815
  0-1A  -> 12-1A    6.594016   53184.3   188.0   -0.08883   0.00121  -0.15078  -0.04751
  0-1A  -> 13-1A    6.648352   53622.6   186.5   -0.25525  -0.00302  -0.10537  -0.03549
  0-1A  -> 14-1A    6.852629   55270.2   180.9   -0.35052  -0.02206  -0.01162   0.06003
  0-1A  -> 15-1A    6.867408   55389.4   180.5    0.44911  -0.00184  -0.19623  -0.05883
  0-1A  -> 16-1A    7.006039   56507.5   177.0   -0.12955   0.03401   0.02436  -0.10743
  0-1A  -> 17-1A    7.137842   57570.6   173.7   -0.36982  -0.12550   0.03033  -0.06551
  0-1A  -> 18-1A    7.142957   57611.8   173.6   -0.72251   0.07460  -0.02345   0.06414
  0-1A  -> 19-1A    7.186861   57965.9   172.5    3.93956  -0.00638  -0.45983  -0.13716
  0-1A  -> 20-1A    7.217343   58211.8   171.8   -2.75447   0.09287   0.02714  -0.13324
  0-1A  -> 21-1A    7.412596   59786.6   167.3    0.42341   0.00799   0.05754  -0.20744
  0-1A  -> 22-1A    7.466502   60221.4   166.1   -1.58110   0.00210  -0.39344  -0.11791

Total run time:      740.369 sec

           *** ORCA-CIS/TD-DFT FINISHED WITHOUT ERROR ***
-----------------------
CIS/TD-DFT TOTAL ENERGY
-----------------------

    E(SCF)  =   -999.809277631 Eh
    DE(CIS) =      0.151987999 Eh (Root  1)
    ----------------------------- ---------
    E(tot)  =   -999.657289632 Eh


Maximum memory used throughout the entire CIS-calculation: 796.9 MB
=> NOW LEAVING ORCA_CIS

-------------------------   --------------------
FINAL SINGLE POINT ENERGY      -999.657289631950
-------------------------   --------------------



           ************************************************************
           *        Program running with 4 parallel MPI-processes     *
           *              working on a common directory               *
           ************************************************************

------------------------------------------------------------------------------
                              ORCA PROPERTY CALCULATIONS
------------------------------------------------------------------------------

GBWName                                 ... td.gbw
Number of atoms                         ...     45
Number of basis functions               ...    432
Max core memory                         ...   2500 MB

Electric properties:
Dipole moment                           ... YES
Quadrupole moment                       ...  NO
Static polarizability (Dipole/Dipole)   ...  NO
Static polarizability (Dipole/Quad.)    ...  NO
Static polarizability (Quad./Quad.)     ...  NO
Static polarizability (Velocity)        ...  NO
Static hyperpolarizability              ...  NO

Atomic electric properties:
Dipole moment                           ...  NO
Quadrupole moment                       ...  NO
Static polarizability                   ...  NO

Choice of electric origin               ... Center of mass
Position of electric origin             ...     1.241688    -0.119830     0.405725

General magnetic properties:
Magnetizability                         ...  NO

EPR properties:
g-Tensor (aka g-matrix)                 ...  NO
Zero-Field splitting spin-orbit         ...  NO
Zero-field splitting spin-spin          ...  NO
Hyperfine couplings                     ...  NO (   0 nuclei)
Quadrupole couplings                    ...  NO (   0 nuclei)
Contact density                         ...  NO (   0 nuclei)

NMR properties:
Chemical shifts                         ...  NO (   0 nuclei)
Spin-rotation constants                 ...  NO (   0 nuclei)
Spin-spin couplings                     ...  NO (   0 nuclei,    0 pairs)

Choice of magnetic origin               ... GIAO
Position of magnetic origin             ...     0.000000     0.000000     0.000000

Properties with geometric perturbations:
SCF Hessian                             ...  NO
IR spectrum                             ...  NO
VCD spectrum                            ...  NO
X-ray spectroscopy properties:
SCF XES/XAS/RIXS spectra                ...  NO

SCF SOC stabilization energy            ...  NO
Diagonal Born-Oppenheimer correction    ...  NO

-------------
DIPOLE MOMENT
-------------

Method             : SCF
Type of density    : Electron Density
Multiplicity       :   1
Irrep              :   0
Energy             :  -999.8092776308634484 Eh
Basis              : AO
                                X                 Y                 Z
Electronic contribution:     27.825307056      -2.310152387       7.579424850
Nuclear contribution   :    -27.272600897       2.633328417      -8.641612858
                        -----------------------------------------
Total Dipole Moment    :      0.552706159       0.323176029      -1.062188007
                        -----------------------------------------
Magnitude (a.u.)       :      1.240229901
Magnitude (Debye)      :      3.152413882



--------------------
Rotational spectrum 
--------------------
 
Rotational constants in cm-1:             0.025258             0.002513             0.002322 
Rotational constants in MHz :           757.228514            75.343991            69.618829 

Dipole components along the rotational axes: 
x,y,z [a.u.] :     0.625562    -1.070816     0.013971 
x,y,z [Debye]:     1.590053    -2.721798     0.035511 

 

Dipole moment calculation done in   0.1 sec 

Maximum memory used throughout the entire PROP-calculation: 22.6 MB

--------------------------------
SUGGESTED CITATIONS FOR THIS RUN
--------------------------------

Below you find a list of papers that are relevant to this ORCA run
We neither can nor want to force you to cite these papers, but we appreciate if you do
You receive ORCA, which is the product of decades of hard work by many enthusiastic individuals, for free
The only thing we kindly ask in return is that you cite our papers,
We deeply appreciate it, if you show your appreciation for ORCA by not just citing the generic ORCA reference.

Please note that relegating all ORCA citations to the supporting information does *not* help us.
SI sections are not indexed - citations you put there will not count into any citation statistics
But we need these citations in order to attract the funding resources that allow us to do what we are doing

Therefore, if you are a happy ORCA user, please consider citing a few of the papers listed below in the main body of your paper

In addition to the list printed below, the program has created the file td.bibtex that contains the list in bibtex format
You can import this file easily into all common literature databanks and citation aid programs

It goes without saying that in many instances, there are alternative algorithms to achieve similar
results as the ones you have gotten from ORCA. It is, of course, also the case that in some instances
ORCA just re-implements algorithms worked out by others. We are fully aware of that and we are also
fully appreciative of our colleagues work. Hence this citation list should not be read as indicating
that the listed papers, which are focused on our own work, are the only ones worth citing. It simply
meant to make it easier for users to cite ORCA specific papers. It is not a substitute for doing your
own literature research and citing the relevant literature in a scientifically appropriate manner.

List of essential papers. We consider these as the minimum necessary citations

  1. Neese, F.
     Software update: the ORCA program system, version 6.0
     WIRES Comput. Molec. Sci. 2025 15(1), e70019
     doi.org/10.1002/wcms.70019

List of papers to cite with high priority. The work reported in these papers was absolutely
necessary for this run to complete.
Our perspective: the developers of density functionals and basis sets usually get cited in chemistry papers
Good! But without the algorithms to do something with them, the functionals or basis sets would not do anything.
Hence, in our opinion, the algorithm design and method developments papers are equally worthy of getting cited

  1. Neese, F.; Olbrich, G.
     Efficient use of the resolution of the identity approximation in time-dependent density functional calculations with hybrid density functionals
     Chem. Phys. Lett. 2002 362 , 170-178
     doi.org/10.1016/s0009-2614(02)01053-9
  2. Neese, F.
     An improvement of the resolution of the identity approximation for the formation of the Coulomb matrix
     J. Comp. Chem. 2003 24(14), 1740-1747
     doi.org/10.1002/jcc.10318
  3. Neese, F.; Wennmohs, F.; Hansen, A.; Becker, U.
     Efficient, approximate and parallel Hartree-Fock and hybrid DFT calculations. A 'chain-of-spheres' algorithm for the Hartree-Fock exchange
     Chem. Phys. 2009 356(1-3), 98-109
     doi.org/10.1016/j.chemphys.2008.10.036
  4. Helmich-Paris, B.; de Souza, B.; Neese, F.; Izsák, R.
     An improved chain of spheres for exchange algorithm
     J. Chem. Phys. 2021 155(10), 104109
     doi.org/10.1063/5.0058766
  5. Neese, F.
     The SHARK Integral Generation and Digestion System
     J. Comp. Chem. 2022 44(3), 381
     doi.org/10.1002/jcc.26942

List of suggested additional citations. These are papers that are important in the 'surrounding' of 
of this run, or papers that preceded the highly important papers. If you like your results we are grateful for a citation.

  1. Izsak, R.; Neese, F.
     An overlap fitted chain of spheres exchange method
     J. Chem. Phys. 2011 135 , 144105
     doi.org/10.1063/1.3646921
  2. Izsak, R.; Hansen, A.; Neese, F.
     The resolution of identity and chain of spheres approximations for the LPNO-CCSD singles Fock term
     Molec. Phys. 2012 110 , 2413-2417
     doi.org/10.1080/00268976.2012.687466
  3. Neese, F.
     The ORCA program system
     WIRES Comput. Molec. Sci. 2012 2(1), 73-78
     doi.org/10.1002/wcms.81
  4. Izsak, R.; Neese, F.; Klopper, W.
     Robust fitting techniques in the chain of spheres approximation to the Fock exchange: The role of the complementary space
     J. Chem. Phys. 2013 139 , 
     doi.org/10.1063/1.4819264
  5. Neese, F.
     Software update: the ORCA program system, version 4.0
     WIRES Comput. Molec. Sci. 2018 8(1), 1-6
     doi.org/10.1002/wcms.1327
  6. Neese, F.; Wennmohs, F.; Becker, U.; Riplinger, C.
     The ORCA quantum chemistry program package
     J. Chem. Phys. 2020 152(22), 224108
     doi.org/10.1063/5.0004608
  7. Neese, F.
     Software update: The ORCA program system—Version 5.0
     WIRES Comput. Molec. Sci. 2022 12(1), e1606
     doi.org/10.1002/wcms.1606

List of optional additional citations

  1. Neese, F.
     Approximate second-order SCF convergence for spin unrestricted wavefunctions
     Chem. Phys. Lett. 2000 325(1-3), 93-98
     doi.org/10.1016/s0009-2614(00)00662-x

Timings for individual modules:

Sum of individual times          ...     1025.988 sec (=  17.100 min)
Startup calculation              ...        7.839 sec (=   0.131 min)   0.8 %
SCF iterations                   ...      275.557 sec (=   4.593 min)  26.9 %
Property integrals               ...        0.556 sec (=   0.009 min)   0.1 %
Property calculations            ...        1.104 sec (=   0.018 min)   0.1 %
CIS module                       ...      740.932 sec (=  12.349 min)  72.2 %
                             ****ORCA TERMINATED NORMALLY****
TOTAL RUN TIME: 0 days 0 hours 17 minutes 7 seconds 471 msec
