
                                 *****************
                                 * O   R   C   A *
                                 *****************

                                            #,                                       
                                            ###                                      
                                            ####                                     
                                            #####                                    
                                            ######                                   
                                           ########,                                 
                                     ,,################,,,,,                         
                               ,,#################################,,                 
                          ,,##########################################,,             
                       ,#########################################, ''#####,          
                    ,#############################################,,   '####,        
                  ,##################################################,,,,####,       
                ,###########''''           ''''###############################       
              ,#####''   ,,,,##########,,,,          '''####'''          '####       
            ,##' ,,,,###########################,,,                        '##       
           ' ,,###''''                  '''############,,,                           
         ,,##''                                '''############,,,,        ,,,,,,###''
      ,#''                                            '''#######################'''  
     '                                                          ''''####''''         
             ,#######,   #######,   ,#######,      ##                                
            ,#'     '#,  ##    ##  ,#'     '#,    #''#        ,####,    ,#,          
            ##       ##  ##   ,#'  ##            #'  '#       #'       ,# #          
            ##       ##  #######   ##           ,######,      #####,      #          
            '#,     ,#'  ##    ##  '#,     ,#' ,#      #,     #,   #      #          
             '#######'   ##     ##  '#######'  #'      '#     '####' #    #          



                #########################################################
                #                        -***-                          #
                #          Department of theory and spectroscopy        #
                #                                                       #
                #                      Frank Neese                      #
                #                                                       #
                #     Directorship, Architecture, Infrastructure        #
                #                    SHARK, DRIVERS                     #
                #        Core code/Algorithms in most modules           #
                #                                                       #
                #        Max Planck Institute fuer Kohlenforschung      #
                #                Kaiser Wilhelm Platz 1                 #
                #                 D-45470 Muelheim/Ruhr                 #
                #                      Germany                          #
                #                                                       #
                #                  All rights reserved                  #
                #                        -***-                          #
                #########################################################


                         Program Version 6.1.1  -  RELEASE   -


 With contributions from (in alphabetic order):
[Max-Planck-Institut fuer Kohlenforschung]                               
  Daniel Aravena         : Magnetic Suceptibility                        
  Michael Atanasov       : Ab Initio Ligand Field Theory (pilot matlab implementation)
  Alexander A. Auer      : GIAO ZORA, VPT2 properties, NMR spectrum      
  Ute Becker             : All parallelization in ORCA, NUMFREQ, NUMCALC 
  Giovanni Bistoni       : ED, misc. LED, open-shell LED, HFLD           
  Dmytro Bykov           : pre 5.0 version of the SCF Hessian            
  Marcos Casanova-Páez   : Triplet and SCS-CIS(D). UHF-(DLPNO)-IP/EA/STEOM-CCSD. UHF-CVS-IP/STEOM-CCSD   
  Vijay G. Chilkuri      : MRCI spin determinant printing, contributions to CSF-ICE 
  Pauline Colinet        : FMM embedding                                 
  Dipayan Datta          : RHF DLPNO-CCSD density                        
  Achintya Kumar Dutta   : EOM-CC, STEOM-CC                              
  Nicolas Foglia         : Exact transition moments, OPA infrastructure, MCD improvements    
  Dmitry Ganyushin       : Spin-Orbit,Spin-Spin,Magnetic field MRCI      
  Miquel Garcia-Rates    : C-PCM and meta-GGA Hessian, CCSD/C-PCM, Gaussian charge scheme 
  Tiago L. C. Gouveia    : GS-ROHF, GS-ROCIS                             
  Yang Guo               : DLPNO-NEVPT2, F12-NEVPT2, CIM, IAO-localization        
  Andreas Hansen         : Spin unrestricted coupled pair/coupled cluster methods 
  Ingolf Harden          : AUTO-CI MPn and infrastructure                
  Benjamin Helmich-Paris : MC-RPA, TRAH-(SCF,CASSCF), AVAS, COSX integrals, SCF dyn. polar., MC-PDFT, srDFT 
  Lee Huntington         : MR-EOM, pCC                                   
  Robert Izsak           : Overlap fitted RIJCOSX, COSX-SCS-MP3, EOM     
  Riya Kayal             : Wick's Theorem for AUTO-CI, AUTO-CI UHF-CCSDT 
  Emily Kempfer          : AUTO-CI RHF CISDT and CCSDT, approximate NEVPT4
  Christian Kollmar      : KDIIS, OOCD, Brueckner-CCSD(T), CCSD density, CASPT2, CASPT2-K, improved NEVPT2 
  Axel Koslowski         : Symmetry handling                             
  Simone Kossmann        : meta-GGA functionals, TD-DFT gradient, OOMP2, (MP2 Hessian; deprecated post 5.0) 
  Lucas Lang             : DCDCAS, Hyperfine gauge corrections, ICE-SOC+SSC
  Marvin Lechner         : AUTO-CI (C++ implementation), FIC-MRCC        
  Spencer Leger          : CASSCF response                               
  Dagmar Lenk            : GEPOL surface, SMD, ORCA-2-JSON               
  Dimitrios Liakos       : Extrapolation schemes; Compound Job, Property file
  Dimitrios Manganas     : Further ROCIS development; embedding schemes. LFT, Crystal Embedding 
  Dimitrios Pantazis     : SARC Basis sets                               
  Anastasios Papadopoulos: AUTO-CI, single reference methods and gradients 
  Taras Petrenko         : pre 6.0 DFT Hessian and TD-DFT gradient,  ECA, NRVS 
  Petra Pikulova         : Analytic Raman intensities                    
  Peter Pinski           : DLPNO-MP2, DLPNO-MP2 Gradient                 
  Shashank Vittal Rao    : ES-AILFT, MagRelax                            
  Christoph Reimann      : Effective Core Potentials                     
  Marius Retegan         : Local ZFS, SOC                                
  Christoph Riplinger    : Optimizer, TS searches, QM/MM, DLPNO-CCSD(T), (RO)-DLPNO pert. Triples 
  Michael Roemelt        : Original ROCIS implementation, recursive CI coupling coefficients
  Masaaki Saitow         : Open-shell DLPNO-CCSD energy and density      
  Barbara Sandhoefer     : DKH picture change effects                    
  Yorick L. A. Schmerwitz: GMF and freeze-and-release deltaSCF, NEB S-IDPP initial path                    
  Kantharuban Sivalingam : CASSCF convergence/infrastructure, NEVPT2, NEVPT3, NEVPT4(SD), FIC-MRCI and CEPA variants
  Bernardo de Souza      : ESD, SOC TD-DFT                               
  Georgi L. Stoychev     : AutoAux, RI-MP2 NMR, DLPNO-MP2 response, X2C  
  Van Anh Tran           : RI-MP2 g-tensors                              
  Willem Van den Heuvel  : Paramagnetic NMR                              
  Zikuan Wang            : NOTCH, Electric field optimization            
  Frank Wennmohs         : Technical directorship and infrastructure     
  Hang Xu                : AUTO-CI-Response properties                   
                                                                         
[FACCTs GmbH]                                                            
  Markus Bursch, Nicolas Foglia, Miquel Garcia-Rates, Ingolf Harden, Hagen Neugebauer, Anastasios Papadopoulos, 
  Christoph Riplinger, Bernardo de Souza, Georgi L. Stoychev                                                    
                                                                 
  APM, various basis sets, CI-OPT, improved COSX, DLPNO-Multilevel,           
  DOCKER, DRACO, updates on ESD, Fragmentator, GOAT, IRC, LR-CPCM, L-BFGS, MBIS, meta-GGA TD-DFT gradient, ML-optimized integration grids, 
  MM, NACMEs, nearIR, NEB, NEB-TS, NL-DFT gradient (VV10), 2- and 3-layer-ONIOM, interface openCOSMO-RS, QMMM,   
  Crystal-QMMM, RESP, rigid body optimization, SF, symmetry and pop. for TD-DFT, various functionals, SOLVATOR                                   
                                                                         
[Other institutions]                                                     
  V. Asgeirsson          : NEB                                           
  Christoph Bannwarth    : sTDA-DFT, sTD-DFT, PBEh-3c, B97-3c, D3        
  Giovanni Bistoni       : ETS/NOCV, ADLD/ADEX, COVALED                  
  Martin Brehm           : Molecular dynamics                            
  Ronald Cardenas        : ETS/NOCV                                      
  Martina Colucci        : COVALED                                       
  Sebastian Ehlert       : rSCAN, r2SCAN, r2SCAN-3c, D4, dhf basis sets  
  Marvin Friede          : D4 for Fr, Ra, Ac-Lr                          
  Lars Goerigk           : TD-DFT with DH, B97 family of functionals     
  Stefan Grimme          : VdW corrections, initial TS optimization, DFT functionals, gCP, sTDA/sTD-DF 
  Waldemar Hujo          : DFT-NL                                        
  H. Jonsson             : NEB                                           
  Holger Kruse           : gCP                                           
  Marcel Mueller         : wB97X-3c, vDZP basis set                      
  Hagen Neugebauer       : wr2SCAN, Native XTB                           
  Gianluca Regni         : ADLD/ADEX                                     
  Tobias Risthaus        : pre 6.0 range-separated hybrid DFT and stability analysis
  Lukas Wittmann         : regularized MP2, r2SCAN double-hybrids, wr2SCAN        
                                                                         
We gratefully acknowledge several colleagues who have allowed us to      
interface, adapt or use parts of their codes:                            
  Ed Valeev, F. Pavosevic, A. Kumar             : LibInt (2-el integral package), F12 methods 
  Garnet Chan, S. Sharma, J. Yang, R. Olivares  : DMRG                   
  Ulf Ekstrom                                   : XCFun DFT Library      
  Mihaly Kallay                                 : mrcc  (arbitrary order and MRCC methods)
  Frank Weinhold                                : gennbo (NPA and NBO analysis)           
  Simon Mueller                                 : openCOSMO-RS                            
  Christopher J. Cramer and Donald G. Truhlar   : smd solvation model                     
  S Lehtola, MJT Oliveira, MAL Marques          : LibXC Library                           
  Liviu Ungur et al                             : ANISO software                          


 Your calculation uses the libint2 library for the computation of 2-el integrals
 For citations please refer to: http://libint.valeyev.net

 Your ORCA version has been built with support for libXC version: 7.0.0
 For citations please refer to: https://libxc.gitlab.io

 This ORCA versions uses:
   CBLAS   interface :  Fast vector & matrix operations
   LAPACKE interface :  Fast linear algebra routines
   Shared memory     :  Shared parallel matrices


  ***********************************
  * Starting time: Tue Jul 21 18:36:01 2026
  * Host name:     DESKTOP-19Q153E
  * Process ID:    33900
  * Working dir.:  C:\Users\ysm04\Documents\etc\uv_vis\calculations\02_tddft_orca\enolA\enolA_c000\b3lyp_631+gd\ethanol\dftopt22
  ***********************************

NOTE: MaxCore=2500 MB was set to SCF,MP2,MDCI,CIPSI,MRCI,RASCI and CIS
      => If you want to overwrite this, your respective input block should be placed after the MaxCore statement
================================================================================

----- Orbital basis set information -----
Your calculation utilizes the basis: 6-31+G(d)
   H-He, Li-Ne : W. J. Hehre, R. Ditchfield and J.A. Pople, J. Chem. Phys. 56, 2257 (1972).
                 Note: He and Ne are unpublished basis sets taken from the Gaussian program.
                 Note: Li and B from J. D. Dill and J. A. Pople, J. Chem. Phys. 62, 2921 (1975).
   Na - Ar     : M. M. Francl, W. J. Pietro, W. J. Hehre, J. S. Binkley, M. S. Gordon, 
                 D. J. DeFrees and J. A. Pople, J. Chem. Phys. 77, 3654 (1982).
   K - Zn      : V. A. Rassolov, J. A. Pople, M. A. Ratner, and T. L. Windus, J. Chem. Phys. 109, 1223 (1998).
   Additional Pol./Diff. from the 6-311G equivalent.

----- AuxJ basis set information -----
Your calculation utilizes the auxiliary basis: def2/J
   H-Rn: F. Weigend, Phys. Chem. Chem. Phys. 8, 1057 (2006).
   Fr-Lr: K. Eichkorn, F. Weigend, O. Treutler, R. Ahlrichs; Theor. Chem. Acc. 97, 119 (1997).

================================================================================
                                        WARNINGS
                       Please study these warnings very carefully!
================================================================================


WARNING: CIS/ROCIS methods need fully converged wavefunctions
  ===> : Setting SCFConvForced true
         You can overwrite this default with %scf ConvForced false 


================================================================================
                                       INPUT FILE
================================================================================
NAME = td.inp
|  1> # enolA / enolA_c000 / b3lyp_631+gd / solvent=ethanol
|  2> ! B3LYP 6-31+G(d) RIJCOSX def2/J TightSCF CPCM(Ethanol)
|  3> %pal nprocs 4 end
|  4> %maxcore 2500
|  5> %scf
|  6>   MaxIter 300
|  7> end
|  8> %tddft
|  9>   nroots 22
| 10>   tda    true
| 11>   maxdim 5
| 12> end
| 13> * xyz 0 1
| 14> C     -6.4464437539     0.1126843508    -0.2593233986
| 15> C     -5.3361748559    -0.1997566761     0.7608485581
| 16> C     -5.5371897047     0.7137443489     1.9936696337
| 17> C     -5.4722864059    -1.6803002750     1.1898519635
| 18> C     -3.9289767496     0.0334154976     0.1810493147
| 19> C     -3.7071144182     0.4984888100    -1.1266125553
| 20> C     -2.4164415614     0.6983681094    -1.6220910513
| 21> C     -1.2857629286     0.4362406950    -0.8291848868
| 22> C     -1.4983311564    -0.0265346848     0.4852593253
| 23> C     -2.7877900426    -0.2199399260     0.9719343279
| 24> C      0.0661703711     0.6497965916    -1.3897923632
| 25> O      0.0959623555     1.1970521222    -2.5936299767
| 26> C      1.2453135767     0.3092001534    -0.7436873683
| 27> C      2.5143919797     0.5518716766    -1.3809546772
| 28> O      2.5637497138     1.0794761367    -2.5280956999
| 29> C      3.7909493267     0.1872035299    -0.7074185620
| 30> C      3.8566385347    -0.4226743177     0.5648627044
| 31> C      5.0779430177    -0.7416595820     1.1430608111
| 32> C      6.2837306116    -0.4610959975     0.4677297204
| 33> O      7.4195074738    -0.8061302538     1.1074695819
| 34> C      8.6774055050    -0.5574544669     0.4926290353
| 35> C      6.2369092305     0.1464803654    -0.8015222796
| 36> C      5.0026336411     0.4597930029    -1.3684818177
| 37> H     -7.4303823884    -0.0730354629     0.1997522890
| 38> H     -6.4235142386     1.1655688153    -0.5825094635
| 39> H     -6.3715275103    -0.5231652080    -1.1558806775
| 40> H     -4.8001801122     0.5052431310     2.7846378949
| 41> H     -6.5415054293     0.5575691011     2.4210923868
| 42> H     -5.4469597023     1.7765308362     1.7155420539
| 43> H     -4.7326606539    -1.9552110716     1.9576123761
| 44> H     -6.4756107231    -1.8625293559     1.6091547159
| 45> H     -5.3355855113    -2.3541618969     0.3283118147
| 46> H     -4.5487296010     0.7132874607    -1.7855896260
| 47> H     -2.2801745558     1.0595150762    -2.6425276291
| 48> H     -0.6531578318    -0.2329382632     1.1444467590
| 49> H     -2.9038633140    -0.5776821109     1.9976351182
| 50> H      1.0918641651     1.2666262333    -2.8276495632
| 51> H      1.2023191057    -0.1496735751     0.2388864970
| 52> H      2.9465878604    -0.6567904380     1.1193437919
| 53> H      5.1286203622    -1.2138327796     2.1268720903
| 54> H      9.4401348508    -0.9175984082     1.1951761860
| 55> H      8.7740776218    -1.1038265241    -0.4608167348
| 56> H      8.8300752892     0.5196754114     0.3101075653
| 57> H      7.1517318187     0.3762545366    -1.3484469876
| 58> H      4.9636467270     0.9301998824    -2.3527211866
| 59> *
| 60> 
| 61>                          ****END OF INPUT****
================================================================================

                       ****************************
                       * Single Point Calculation *
                       ****************************

---------------------------------
CARTESIAN COORDINATES (ANGSTROEM)
---------------------------------
  C     -6.446444    0.112684   -0.259323
  C     -5.336175   -0.199757    0.760849
  C     -5.537190    0.713744    1.993670
  C     -5.472286   -1.680300    1.189852
  C     -3.928977    0.033415    0.181049
  C     -3.707114    0.498489   -1.126613
  C     -2.416442    0.698368   -1.622091
  C     -1.285763    0.436241   -0.829185
  C     -1.498331   -0.026535    0.485259
  C     -2.787790   -0.219940    0.971934
  C      0.066170    0.649797   -1.389792
  O      0.095962    1.197052   -2.593630
  C      1.245314    0.309200   -0.743687
  C      2.514392    0.551872   -1.380955
  O      2.563750    1.079476   -2.528096
  C      3.790949    0.187204   -0.707419
  C      3.856639   -0.422674    0.564863
  C      5.077943   -0.741660    1.143061
  C      6.283731   -0.461096    0.467730
  O      7.419507   -0.806130    1.107470
  C      8.677406   -0.557454    0.492629
  C      6.236909    0.146480   -0.801522
  C      5.002634    0.459793   -1.368482
  H     -7.430382   -0.073035    0.199752
  H     -6.423514    1.165569   -0.582509
  H     -6.371528   -0.523165   -1.155881
  H     -4.800180    0.505243    2.784638
  H     -6.541505    0.557569    2.421092
  H     -5.446960    1.776531    1.715542
  H     -4.732661   -1.955211    1.957612
  H     -6.475611   -1.862529    1.609155
  H     -5.335586   -2.354162    0.328312
  H     -4.548730    0.713287   -1.785590
  H     -2.280175    1.059515   -2.642528
  H     -0.653158   -0.232938    1.144447
  H     -2.903863   -0.577682    1.997635
  H      1.091864    1.266626   -2.827650
  H      1.202319   -0.149674    0.238886
  H      2.946588   -0.656790    1.119344
  H      5.128620   -1.213833    2.126872
  H      9.440135   -0.917598    1.195176
  H      8.774078   -1.103827   -0.460817
  H      8.830075    0.519675    0.310108
  H      7.151732    0.376255   -1.348447
  H      4.963647    0.930200   -2.352721

----------------------------
CARTESIAN COORDINATES (A.U.)
----------------------------
  NO LB      ZA    FRAG     MASS         X           Y           Z
   0 C     6.0000    0    12.011  -12.182013    0.212943   -0.490050
   1 C     6.0000    0    12.011  -10.083909   -0.377485    1.437795
   2 C     6.0000    0    12.011  -10.463772    1.348781    3.767490
   3 C     6.0000    0    12.011  -10.341123   -3.175307    2.248494
   4 C     6.0000    0    12.011   -7.424690    0.063146    0.342134
   5 C     6.0000    0    12.011   -7.005431    0.942007   -2.128989
   6 C     6.0000    0    12.011   -4.566413    1.319724   -3.065308
   7 C     6.0000    0    12.011   -2.429740    0.824375   -1.566932
   8 C     6.0000    0    12.011   -2.831436   -0.050143    0.917007
   9 C     6.0000    0    12.011   -5.268160   -0.415626    1.836690
  10 C     6.0000    0    12.011    0.125044    1.227938   -2.626327
  11 O     8.0000    0    15.999    0.181343    2.262101   -4.901250
  12 C     6.0000    0    12.011    2.353302    0.584304   -1.405365
  13 C     6.0000    0    12.011    4.751512    1.042886   -2.609626
  14 O     8.0000    0    15.999    4.844785    2.039914   -4.777409
  15 C     6.0000    0    12.011    7.163856    0.353763   -1.336827
  16 C     6.0000    0    12.011    7.287991   -0.798739    1.067436
  17 C     6.0000    0    12.011    9.595922   -1.401533    2.160072
  18 C     6.0000    0    12.011   11.874530   -0.871345    0.883881
  19 O     8.0000    0    15.999   14.020837   -1.523365    2.092814
  20 C     6.0000    0    12.011   16.397920   -1.053436    0.930934
  21 C     6.0000    0    12.011   11.786050    0.276808   -1.514658
  22 C     6.0000    0    12.011    9.453608    0.868883   -2.586056
  23 H     1.0000    0     1.008  -14.041388   -0.138017    0.377477
  24 H     1.0000    0     1.008  -12.138683    2.202606   -1.100783
  25 H     1.0000    0     1.008  -12.040442   -0.988639   -2.184298
  26 H     1.0000    0     1.008   -9.071026    0.954771    5.262203
  27 H     1.0000    0     1.008  -12.361654    1.053653    4.575202
  28 H     1.0000    0     1.008  -10.293262    3.357157    3.241905
  29 H     1.0000    0     1.008   -8.943433   -3.694813    3.699351
  30 H     1.0000    0     1.008  -12.237131   -3.519670    3.040862
  31 H     1.0000    0     1.008  -10.082795   -4.448721    0.620419
  32 H     1.0000    0     1.008   -8.595853    1.347918   -3.374275
  33 H     1.0000    0     1.008   -4.308905    2.002193   -4.993654
  34 H     1.0000    0     1.008   -1.234289   -0.440190    2.162691
  35 H     1.0000    0     1.008   -5.487506   -1.091661    3.774983
  36 H     1.0000    0     1.008    2.063324    2.393577   -5.343483
  37 H     1.0000    0     1.008    2.272054   -0.282842    0.451430
  38 H     1.0000    0     1.008    5.568244   -1.241154    2.115253
  39 H     1.0000    0     1.008    9.691688   -2.293812    4.019206
  40 H     1.0000    0     1.008   17.839270   -1.734010    2.258556
  41 H     1.0000    0     1.008   16.580604   -2.085930   -0.870817
  42 H     1.0000    0     1.008   16.686424    0.982044    0.586018
  43 H     1.0000    0     1.008   13.514815    0.711018   -2.548196
  44 H     1.0000    0     1.008    9.379933    1.757823   -4.445999

--------------------------------
INTERNAL COORDINATES (ANGSTROEM)
--------------------------------
 C      0   0   0     0.000000000000     0.00000000     0.00000000
 C      1   0   0     1.539827017036     0.00000000     0.00000000
 C      2   1   0     1.547494393062   108.32252607     0.00000000
 C      2   1   3     1.547442930816   108.32380625   118.59671689
 C      2   1   3     1.539721707196   112.25733399   239.31257266
 C      5   2   1     1.405523264216   123.00525437     0.90792869
 C      6   5   2     1.396884783226   121.54720552   180.05437645
 C      7   6   5     1.405647586614   121.09478317     0.22167811
 C      8   7   6     1.409648853560   117.76926951   359.59039694
 C      9   8   7     1.391747953000   120.75729722     0.25695190
 C      8   7   6     1.479057304639   119.63780405   179.55341126
 O     11   8   7     1.322724906314   115.16887244     5.71867714
 C     11   8   7     1.387024259868   124.40514727   186.17418321
 C     13  11   8     1.440680076952   120.09610843   179.61130818
 O     14  13  11     1.263619870924   120.41783059     0.24186954
 C     14  13  11     1.488701587248   120.92865880   180.31789940
 C     16  14  13     1.412432540645   123.58610579     0.79359268
 C     17  16  14     1.388398101997   121.01363246   179.92562899
 C     18  17  16     1.410216908357   120.46373683     0.00000000
 O     19  18  17     1.348445330416   116.23686621   179.98421279
 C     20  19  18     1.422032349010   119.68257916   179.95036917
 C     19  18  17     1.407956646345   119.28318389   359.97559811
 C     22  19  18     1.393931188133   119.54490686     0.00000000
 H      1   2   3     1.101534190394   109.49569801   300.44422457
 H      1   2   3     1.101608229273   111.91884918    59.63973691
 H      1   2   3     1.101695084554   111.90204027   181.21525631
 H      3   2   1     1.101038912813   111.93590592   177.27170678
 H      3   2   1     1.102601919358   110.09197542    57.48708006
 H      3   2   1     1.102275610529   110.94768857   297.99705327
 H      4   2   1     1.100944253931   111.91006265   182.66883369
 H      4   2   1     1.102579666773   110.09640422   302.47412699
 H      4   2   1     1.102283107032   110.93509981    61.96708588
 H      6   5   2     1.090277650863   120.37581830     0.00000000
 H      7   6   5     1.091002583753   119.63876979   179.94011247
 H      9   8   7     1.091534909446   120.55996048   180.73647294
 H     10   9   8     1.092480931830   118.18076985   180.13861984
 H     12  11   8     1.025390724634   104.93123783   180.32907171
 H     13  11   8     1.085294901865   119.46414074     0.23525067
 H     17  16  14     1.091078303319   120.77236401     0.00000000
 H     18  17  16     1.092428649779   121.00771313   180.03200025
 H     21  20  19     1.097739592233   106.29218002   179.91850040
 H     21  20  19     1.103144033922   111.38300309   298.82611001
 H     21  20  19     1.103100595932   111.39053386    60.98325592
 H     22  19  18     1.090331680661   121.01314900   179.97702950
 H     23  22  19     1.091572144682   119.68485751   180.04521979

---------------------------
INTERNAL COORDINATES (A.U.)
---------------------------
 C      0   0   0     0.000000000000     0.00000000     0.00000000
 C      1   0   0     2.909851355811     0.00000000     0.00000000
 C      2   1   0     2.924340596665   108.32252607     0.00000000
 C      2   1   3     2.924243347114   108.32380625   118.59671689
 C      2   1   3     2.909652349053   112.25733399   239.31257266
 C      5   2   1     2.656054044224   123.00525437     0.90792869
 C      6   5   2     2.639729680938   121.54720552   180.05437645
 C      7   6   5     2.656288979507   121.09478317     0.22167811
 C      8   7   6     2.663850278224   117.76926951   359.59039694
 C      9   8   7     2.630022478615   120.75729722     0.25695190
 C      8   7   6     2.795013242143   119.63780405   179.55341126
 O     11   8   7     2.499587823451   115.16887244     5.71867714
 C     11   8   7     2.621095992255   124.40514727   186.17418321
 C     13  11   8     2.722490792036   120.09610843   179.61130818
 O     14  13  11     2.387895493427   120.41783059     0.24186954
 C     14  13  11     2.813238295033   120.92865880   180.31789940
 C     16  14  13     2.669110684458   123.58610579     0.79359268
 C     17  16  14     2.623692177630   121.01363246   179.92562899
 C     18  17  16     2.664923746220   120.46373683     0.00000000
 O     19  18  17     2.548192381052   116.23686621   179.98421279
 C     20  19  18     2.687251693205   119.68257916   179.95036917
 C     19  18  17     2.660652470026   119.28318389   359.97559811
 C     22  19  18     2.634148195102   119.54490686     0.00000000
 H      1   2   3     2.081597946996   109.49569801   300.44422457
 H      1   2   3     2.081737860201   111.91884918    59.63973691
 H      1   2   3     2.081901992894   111.90204027   181.21525631
 H      3   2   1     2.080662008007   111.93590592   177.27170678
 H      3   2   1     2.083615662322   110.09197542    57.48708006
 H      3   2   1     2.082999028000   110.94768857   297.99705327
 H      4   2   1     2.080483128645   111.91006265   182.66883369
 H      4   2   1     2.083573611031   110.09640422   302.47412699
 H      4   2   1     2.083013194339   110.93509981    61.96708588
 H      6   5   2     2.060326170065   120.37581830     0.00000000
 H      7   6   5     2.061696094694   119.63876979   179.94011247
 H      9   8   7     2.062702044468   120.55996048   180.73647294
 H     10   9   8     2.064489767690   118.18076985   180.13861984
 H     12  11   8     1.937707649821   104.93123783   180.32907171
 H     13  11   8     2.050910139066   119.46414074     0.23525067
 H     17  16  14     2.061839183936   120.77236401     0.00000000
 H     18  17  16     2.064390968932   121.00771313   180.03200025
 H     21  20  19     2.074427195683   106.29218002   179.91850040
 H     21  20  19     2.084640110381   111.38300309   298.82611001
 H     21  20  19     2.084558024477   111.39053386    60.98325592
 H     22  19  18     2.060428271587   121.01314900   179.97702950
 H     23  22  19     2.062772408865   119.68485751   180.04521979

---------------------
BASIS SET INFORMATION
---------------------
There are 3 groups of distinct atoms

 Group   1 Type C   : 11s5p1d contracted to 4s3p1d pattern {6311/311/1}
 Group   2 Type O   : 11s5p1d contracted to 4s3p1d pattern {6311/311/1}
 Group   3 Type H   : 4s contracted to 2s pattern {31}

Atom   0C    basis set group =>   1
Atom   1C    basis set group =>   1
Atom   2C    basis set group =>   1
Atom   3C    basis set group =>   1
Atom   4C    basis set group =>   1
Atom   5C    basis set group =>   1
Atom   6C    basis set group =>   1
Atom   7C    basis set group =>   1
Atom   8C    basis set group =>   1
Atom   9C    basis set group =>   1
Atom  10C    basis set group =>   1
Atom  11O    basis set group =>   2
Atom  12C    basis set group =>   1
Atom  13C    basis set group =>   1
Atom  14O    basis set group =>   2
Atom  15C    basis set group =>   1
Atom  16C    basis set group =>   1
Atom  17C    basis set group =>   1
Atom  18C    basis set group =>   1
Atom  19O    basis set group =>   2
Atom  20C    basis set group =>   1
Atom  21C    basis set group =>   1
Atom  22C    basis set group =>   1
Atom  23H    basis set group =>   3
Atom  24H    basis set group =>   3
Atom  25H    basis set group =>   3
Atom  26H    basis set group =>   3
Atom  27H    basis set group =>   3
Atom  28H    basis set group =>   3
Atom  29H    basis set group =>   3
Atom  30H    basis set group =>   3
Atom  31H    basis set group =>   3
Atom  32H    basis set group =>   3
Atom  33H    basis set group =>   3
Atom  34H    basis set group =>   3
Atom  35H    basis set group =>   3
Atom  36H    basis set group =>   3
Atom  37H    basis set group =>   3
Atom  38H    basis set group =>   3
Atom  39H    basis set group =>   3
Atom  40H    basis set group =>   3
Atom  41H    basis set group =>   3
Atom  42H    basis set group =>   3
Atom  43H    basis set group =>   3
Atom  44H    basis set group =>   3
---------------------------------
AUXILIARY/J BASIS SET INFORMATION
---------------------------------
There are 3 groups of distinct atoms

 Group   1 Type C   : 12s5p4d2f1g contracted to 6s4p3d1f1g pattern {711111/2111/211/2/1}
 Group   2 Type O   : 12s5p4d2f1g contracted to 6s4p3d1f1g pattern {711111/2111/211/2/1}
 Group   3 Type H   : 5s2p1d contracted to 3s1p1d pattern {311/2/1}

Atom   0C    basis set group =>   1
Atom   1C    basis set group =>   1
Atom   2C    basis set group =>   1
Atom   3C    basis set group =>   1
Atom   4C    basis set group =>   1
Atom   5C    basis set group =>   1
Atom   6C    basis set group =>   1
Atom   7C    basis set group =>   1
Atom   8C    basis set group =>   1
Atom   9C    basis set group =>   1
Atom  10C    basis set group =>   1
Atom  11O    basis set group =>   2
Atom  12C    basis set group =>   1
Atom  13C    basis set group =>   1
Atom  14O    basis set group =>   2
Atom  15C    basis set group =>   1
Atom  16C    basis set group =>   1
Atom  17C    basis set group =>   1
Atom  18C    basis set group =>   1
Atom  19O    basis set group =>   2
Atom  20C    basis set group =>   1
Atom  21C    basis set group =>   1
Atom  22C    basis set group =>   1
Atom  23H    basis set group =>   3
Atom  24H    basis set group =>   3
Atom  25H    basis set group =>   3
Atom  26H    basis set group =>   3
Atom  27H    basis set group =>   3
Atom  28H    basis set group =>   3
Atom  29H    basis set group =>   3
Atom  30H    basis set group =>   3
Atom  31H    basis set group =>   3
Atom  32H    basis set group =>   3
Atom  33H    basis set group =>   3
Atom  34H    basis set group =>   3
Atom  35H    basis set group =>   3
Atom  36H    basis set group =>   3
Atom  37H    basis set group =>   3
Atom  38H    basis set group =>   3
Atom  39H    basis set group =>   3
Atom  40H    basis set group =>   3
Atom  41H    basis set group =>   3
Atom  42H    basis set group =>   3
Atom  43H    basis set group =>   3
Atom  44H    basis set group =>   3


           ************************************************************
           *        Program running with 4 parallel MPI-processes     *
           *              working on a common directory               *
           ************************************************************
------------------------------------------------------------------------------
                             ORCA STARTUP CALCULATIONS
                           -- RI-GTO INTEGRALS CHOSEN --
------------------------------------------------------------------------------
------------------------------------------------------------------------------
                   ___                                                        
                  /   \      - P O W E R E D   B Y -                         
                 /     \                                                     
                 |  |  |   _    _      __       _____    __    __             
                 |  |  |  | |  | |    /  \     |  _  \  |  |  /  |          
                  \  \/   | |  | |   /    \    | | | |  |  | /  /          
                 / \  \   | |__| |  /  /\  \   | |_| |  |  |/  /          
                |  |  |   |  __  | /  /__\  \  |    /   |      \           
                |  |  |   | |  | | |   __   |  |    \   |  |\   \          
                \     /   | |  | | |  |  |  |  | |\  \  |  | \   \       
                 \___/    |_|  |_| |__|  |__|  |_| \__\ |__|  \__/        
                                                                              
                      - O R C A' S   B I G   F R I E N D -                    
                                      &                                       
                       - I N T E G R A L  F E E D E R -                       
                                                                              
 v1 FN, 2020, v2 2021, v3 2022-2024                                           
------------------------------------------------------------------------------


----------------------
SHARK INTEGRAL PACKAGE
----------------------

Number of atoms                             ...     45
Number of basis functions                   ...    458
Number of shells                            ...    228
Maximum angular momentum                    ...      2
Integral batch strategy                     ... SHARK/LIBINT Hybrid
RI-J (if used) integral strategy            ... SPLIT-RIJ (Revised 2003 algorithm where possible)
Printlevel                                  ...      1
Contraction scheme used                     ... SEGMENTED contraction
Prescreening option                         ... SCHWARTZ
   Thresh                                   ... 2.500e-11
   Tcut                                     ... 2.500e-12
   Tpresel                                  ... 2.500e-12 
Coulomb Range Separation                    ... NOT USED
Exchange Range Separation                   ... NOT USED
Multipole approximations                    ... NOT USED
Finite Nucleus Model                        ... NOT USED
CABS basis                                  ... NOT available
Auxiliary Coulomb fitting basis             ... AVAILABLE
   # of basis functions in Aux-J            ...   1369
   # of shells in Aux-J                     ...    455
   Maximum angular momentum in Aux-J        ...      4
Auxiliary J/K fitting basis                 ... NOT available
Auxiliary Correlation fitting basis         ... NOT available
Auxiliary 'external' fitting basis          ... NOT available

Checking pre-screening integrals            ... done (  0.0 sec) Dimension = 228
   => SHARK Basis and OBASIS are compatible. Storing Pre-screening
Shell pair information
Shell pair cut-off parameter TPreSel        ...   2.5e-12
Total number of shell pairs                 ...     26106
Shell pairs after pre-screening             ...     18683
Total number of primitive shell pairs       ...    115509
Primitive shell pairs kept                  ...     50820
          la=0 lb=0:   6189 shell pairs
          la=1 lb=0:   7285 shell pairs
          la=1 lb=1:   2082 shell pairs
          la=2 lb=0:   1820 shell pairs
          la=2 lb=1:   1170 shell pairs
          la=2 lb=2:    137 shell pairs

Checking whether 4 symmetric matrices of dimension 458 fit in memory
:Max Core in MB      =   2500.00
 MB in use           =     22.34
 MB left             =   2477.66
 MB needed           =      3.21
 Data fit in memory  = YES
Calculating RI/J V-Matrix + Cholesky decomp.... done (  0.2 sec)
Calculating Nuclear repulsion               ... done (  0.0 sec) ENN=   1726.234492521343 Eh

Diagonalization of the overlap matrix:
Smallest eigenvalue                        ... 8.292e-08
Time for diagonalization                   ...    0.051 sec
Threshold for overlap eigenvalues          ... 1.000e-07
Number of eigenvalues below threshold      ... 1
Smallest eigenvalue above threshold        ... 1.847e-07

IMPORTANT:
Smallest eigenvalue of S below the DiffSThresh (1.000e-06) while
Thresh>1e-12 and/or TCut>1e-13! In order to avoid SCF convergence issues,
Thresh will be set to at least 1e-12 and TCut to at least 1e-13.
This can be turned off by adding %SCF DiffSThresh -1 END to the input.

Time for construction of square roots      ...    0.025 sec
Total time needed                          ...    0.084 sec

-------------------
DFT GRID GENERATION
-------------------

General Integration Accuracy     IntAcc      ... 4.388
Radial Grid Type                 RadialGrid  ... OptM3 with GC (2021)
Angular Grid (max. ang.)         AngularGrid ... 4 (Lebedev-302)
Angular grid pruning method      GridPruning ... 4 (adaptive)
Weight generation scheme         WeightScheme... mBecke (2022)
Basis function cutoff            BFCut       ... 1.0000e-11
Integration weight cutoff        WCut        ... 1.0000e-14
Partially contracted basis set               ... off
Rotationally invariant grid construction     ... off
Angular grids for H and He will be reduced by one unit
Diffuse basis detected: some atoms will have their outermost
                        angular grid increased by 1.

Total number of grid points                  ...   213129
Total number of batches                      ...     3353
Average number of points per batch           ...       63
Average number of grid points per atom       ...     4736

--------------------
COSX GRID GENERATION
--------------------

GRIDX 1
-------
General Integration Accuracy     IntAcc      ... 3.816
Radial Grid Type                 RadialGrid  ... OptM3 with GC (2021)
Angular Grid (max. ang.)         AngularGrid ... 1 (Lebedev-50)
Angular grid pruning method      GridPruning ... 4 (adaptive)
Weight generation scheme         WeightScheme... mBecke (2022)
Basis function cutoff            BFCut       ... 1.0000e-11
Integration weight cutoff        WCut        ... 1.0000e-14
Partially contracted basis set               ... on
Rotationally invariant grid construction     ... off
Angular grids for H and He will be reduced by one unit
Diffuse basis detected: some atoms will have their outermost
                        angular grid increased by 1.

Total number of grid points                  ...    27211
Total number of batches                      ...      240
Average number of points per batch           ...      113
Average number of grid points per atom       ...      605
UseSFitting                                  ... on

GRIDX 2
-------
General Integration Accuracy     IntAcc      ... 4.020
Radial Grid Type                 RadialGrid  ... OptM3 with GC (2021)
Angular Grid (max. ang.)         AngularGrid ... 2 (Lebedev-110)
Angular grid pruning method      GridPruning ... 4 (adaptive)
Weight generation scheme         WeightScheme... mBecke (2022)
Basis function cutoff            BFCut       ... 1.0000e-11
Integration weight cutoff        WCut        ... 1.0000e-14
Partially contracted basis set               ... on
Rotationally invariant grid construction     ... off
Angular grids for H and He will be reduced by one unit
Diffuse basis detected: some atoms will have their outermost
                        angular grid increased by 1.

Total number of grid points                  ...    62672
Total number of batches                      ...      513
Average number of points per batch           ...      122
Average number of grid points per atom       ...     1393
UseSFitting                                  ... on

GRIDX 3
-------
General Integration Accuracy     IntAcc      ... 4.338
Radial Grid Type                 RadialGrid  ... OptM3 with GC (2021)
Angular Grid (max. ang.)         AngularGrid ... 3 (Lebedev-194)
Angular grid pruning method      GridPruning ... 4 (adaptive)
Weight generation scheme         WeightScheme... mBecke (2022)
Basis function cutoff            BFCut       ... 1.0000e-11
Integration weight cutoff        WCut        ... 1.0000e-14
Partially contracted basis set               ... on
Rotationally invariant grid construction     ... off
Angular grids for H and He will be reduced by one unit
Diffuse basis detected: some atoms will have their outermost
                        angular grid increased by 1.

Total number of grid points                  ...   135184
Total number of batches                      ...     1080
Average number of points per batch           ...      125
Average number of grid points per atom       ...     3004
UseSFitting                                  ... on
Grids setup in   5.9 sec
Initializing property integral containers    ... done (  0.1 sec)

SHARK setup successfully completed in   6.8 seconds

Maximum memory used throughout the entire STARTUP-calculation: 66.5 MB


           ************************************************************
           *        Program running with 4 parallel MPI-processes     *
           *              working on a common directory               *
           ************************************************************
-------------------------------------------------------------------------------
                                 ORCA GUESS
                   Start orbitals & Density for SCF / CASSCF
-------------------------------------------------------------------------------

------------
SCF SETTINGS
------------
Hamiltonian:
 Density Functional     Method          .... DFT(GTOs)
 Exchange Functional    Exchange        .... B88
   X-Alpha parameter    XAlpha          ....  0.666667
   Becke's b parameter  XBeta           ....  0.004200
 Correlation Functional Correlation     .... LYP
 LDA part of GGA corr.  LDAOpt          .... VWN-5
 Gradients option       PostSCFGGA      .... off
 Hybrid DFT is turned on
   Fraction HF Exchange ScalHFX         ....  0.200000
   Scaling of DF-GGA-X  ScalDFX         ....  0.720000
   Scaling of DF-GGA-C  ScalDFC         ....  0.810000
   Scaling of DF-LDA-C  ScalLDAC        ....  1.000000
   Perturbative correction              ....  0.000000
   NL short-range parameter             ....  4.800000
 RI-approximation to the Coulomb term is turned on
   Number of AuxJ basis functions       .... 1369
   RIJ-COSX (HFX calculated with COS-X)).... on


General Settings:
 Integral files         IntName         .... td
 Hartree-Fock type      HFTyp           .... RHF
 Total Charge           Charge          ....    0
 Multiplicity           Mult            ....    1
 Number of Electrons    NEL             ....  166
 Basis Dimension        Dim             ....  458
 Nuclear Repulsion      ENuc            ....   1726.2344925213 Eh

Convergence Acceleration:
 AO-DIIS                CNVDIIS         .... on
   Start iteration      DIISMaxIt       ....    12
   Startup error        DIISStart       ....  0.200000
   # of expansion vecs  DIISMaxEq       ....     5
   Bias factor          DIISBfac        ....   1.050
   Max. coefficient     DIISMaxC        ....  10.000
 MO-DIIS                CNVKDIIS        .... off
 Trust-Rad. Augm. Hess. CNVTRAH         .... auto
   Auto Start mean grad. ratio tolernc. ....  1.125000
   Auto Start start iteration           ....    50
   Auto Start num. interpolation iter.  ....    10
   Max. Number of Micro iterations      ....    24
   Max. Number of Macro iterations      .... Maxiter - #DIIS iter
   Number of Davidson start vectors     ....     2
   Converg. threshold    (grad. norm)   ....   1.000e-05
   Grad. Scal. Fac. for Micro threshold ....   0.100
   Minimum threshold for Micro iter.    ....   1.000e-02
   NR start threshold (gradient norm)   ....   1.000e-04
   Initial trust radius                 ....   0.400
   Minimum AH scaling param. (alpha)    ....   1.000
   Maximum AH scaling param. (alpha)    .... 1000.000
   Quad. conv. algorithm                .... NR
   White noise on init. David. guess    .... on
   Maximum white noise                  ....   0.010
   Pseudo random numbers                .... off
   Inactive MOs                         .... canonical
   Orbital update algorithm             .... Taylor
   Preconditioner                       .... Diag
   Full preconditioner red. dimension   ....   250
 SOSCF                 CNVSOSCF           .... on
   Start iteration     SOSCFMaxIt         ....   150
   Startup grad/error  SOSCFStart         ....  0.003300
   Hessian update      SOSCFHessUp        .... L-BFGS
   Autom. constraints  SOSCFAutoConstrain .... off
 Level Shifting         CNVShift        .... on
   Level shift para.    LevelShift      ....    0.2500
   Turn off err/grad.   ShiftErr        ....    0.0010
 Zerner damping         CNVZerner       .... off
 Static damping         CNVDamp         .... on
   Fraction old density DampFac         ....    0.7000
   Max. Damping (<1)    DampMax         ....    0.9800
   Min. Damping (>=0)   DampMin         ....    0.0000
   Turn off err/grad.   DampErr         ....    0.1000

SCF Procedure:
 Maximum # iterations   MaxIter         ....   300
 SCF integral mode      SCFMode         .... Direct
   Integral package                     .... SHARK and LIBINT hybrid scheme
 Reset frequency        DirectResetFreq ....    20
 Integral Threshold     Thresh          ....  1.000e-12 Eh
 Primitive CutOff       TCut            ....  1.000e-13 Eh

Convergence Tolerance:
 Convergence Check Mode ConvCheckMode   .... Total+1el-Energy
 Convergence forced     ConvForced      .... 1
 Energy Change          TolE            ....  1.000e-08 Eh
 1-El. energy change                    ....  1.000e-05 Eh
 Orbital Gradient       TolG            ....  1.000e-05
 Orbital Rotation angle TolX            ....  1.000e-05
 DIIS Error             TolErr          ....  5.000e-07

------------------------------
INITIAL GUESS: MODEL POTENTIAL
------------------------------
Loading Hartree-Fock densities                     ... done
Calculating cut-offs                               ... done
Initializing the effective Hamiltonian             ... done
Setting up the integral package (SHARK)            ... done
Starting the Coulomb interaction                   ... done (   1.0 sec)
Making the grid                                    ... done (   1.0 sec)
Mapping shells                                     ... done
Starting the XC term evaluation                    ... done (   1.0 sec)
  promolecular density results
     # of electrons  =    165.988130090
     EX              =   -133.949395828
     EC              =     -5.597264580
     EX+EC           =   -139.546660408
Transforming the Hamiltonian                       ... done (   0.0 sec)
Diagonalizing the Hamiltonian                      ... done (   0.0 sec)
Back transforming the eigenvectors                 ... done (   0.0 sec)
Now organizing SCF variables                       ... done
                      ------------------
                      INITIAL GUESS DONE (   3.1 sec)
                      ------------------
             **** ENERGY FILE WAS UPDATED (td.en.tmp) ****
Finished Guess after   3.4 sec
Maximum memory used throughout the entire GUESS-calculation: 29.9 MB


           ************************************************************
           *        Program running with 4 parallel MPI-processes     *
           *              working on a common directory               *
           ************************************************************

-------------------------------------------------------------------------------------------
                                      ORCA LEAN-SCF
                              memory conserving SCF solver
-------------------------------------------------------------------------------------------

--------------------
CPCM SOLVATION MODEL
--------------------
CPCM parameters:
  Epsilon                                         ...      25.4510
  Refrac                                          ...       1.3611
  Rsolv                                           ...       1.3000
  Surface type                                    ... GAUSSIAN VDW
  Discretization scheme                           ... Constant charge density
    Threshold for H atoms                         ...       5.0000 (charges/Ang^2)
    Threshold for non-H atoms                     ...       5.0000 (charges/Ang^2)
  Epsilon function type                           ...         CPCM
Solvent:                                          ... ETHANOL
Radii:
  Scheme                                          ... Element-dependent radii
  Radius for C  used is    3.8550 Bohr (=   2.0400 Ang.)
  Radius for O  used is    3.4469 Bohr (=   1.8240 Ang.)
  Radius for H  used is    2.4944 Bohr (=   1.3200 Ang.)
Calculating surface                               ...        done! (  0.0s)
Cavity surface points                             ...         3814
Cavity Volume                                     ...    2632.3034
Cavity Surface-area                               ...    1350.7236
Calculating surface distance matrix               ...        done! (  0.1s)
Performing Cholesky decomposition & store         ...        done! (  0.9s)
Overall time for CPCM initialization              ...                 1.0s

----------------------------------------D-I-I-S--------------------------------------------
Iteration    Energy (Eh)           Delta-E    RMSDP     MaxDP     DIISErr   Damp  Time(sec)
-------------------------------------------------------------------------------------------
               ***  Starting incremental Fock matrix formation  ***
    1    -999.9520876385777228     0.00e+00  1.61e-01  6.57e+00  2.37e-01  0.700  31.0
    2    -1000.1921418158149208    -2.40e-01  1.32e-01  5.44e+00  9.67e-02  0.700  18.5
                               ***Turning on AO-DIIS***
    3    -1000.2931989890525983    -1.01e-01  4.76e-02  2.82e+00  3.87e-02  0.700  18.7
    4    -1000.3523497725282141    -5.92e-02  1.53e-01  8.24e+00  2.06e-02  0.000  16.4
    5    -1000.4797167591609650    -1.27e-01  2.82e-02  9.49e-01  5.00e-03  0.000  17.9
                              *** Initializing SOSCF ***
---------------------------------------S-O-S-C-F--------------------------------------
Iteration    Energy (Eh)           Delta-E    RMSDP     MaxDP     MaxGrad    Time(sec)
--------------------------------------------------------------------------------------
    6    -1000.4803215074321088    -6.05e-04  8.61e-03  3.54e-01  1.14e-03    14.8
               *** Restarting incremental Fock matrix formation ***
    7    -1000.4802750562389519     4.65e-05  8.99e-02  3.46e+00  1.85e-04    31.6
    8    -1000.4802762904514566    -1.23e-06  3.29e-02  1.51e+00  2.94e-04    27.7
    9    -1000.4802793442072470    -3.05e-06  3.44e-02  1.57e+00  1.28e-04    24.4
   10    -1000.4802815537723291    -2.21e-06  2.10e-03  8.79e-02  3.53e-05    26.2
   11    -1000.4802818550638221    -3.01e-07  5.97e-03  2.49e-01  2.07e-05    21.6
   12    -1000.4802816631927271     1.92e-07  1.60e-03  8.30e-02  1.64e-05    23.4
   13    -1000.4802816615260781     1.67e-09  2.04e-03  7.86e-02  1.30e-05    18.6
                 **** Energy Check signals convergence ****

               *****************************************************
               *                     SUCCESS                       *
               *           SCF CONVERGED AFTER  13 CYCLES          *
               *****************************************************

Recomputing exchange energy using gridx3       ... done (   45.666 sec)
Old exchange energy                            :    -27.223770946 Eh
New exchange energy                            :    -27.223730689 Eh
Exchange energy change after final integration :      0.000040257 Eh
Total energy after final integration           :  -1000.480241500 Eh
             **** ENERGY FILE WAS UPDATED (td.en.tmp) ****

----------------
TOTAL SCF ENERGY
----------------

Total Energy       :      -1000.48024149997832 Eh          -27224.45144 eV

Components:
Nuclear Repulsion  :       1726.23449252134287 Eh           46973.22861 eV
Electronic Energy  :      -2726.69488555054477 Eh          -74197.13995 eV
One Electron Energy:      -4786.23210165605906 Eh         -130239.99676 eV
Two Electron Energy:       2059.53721610551429 Eh           56042.85681 eV
CPCM Dielectric    :         -0.01988872787643 Eh              -0.54120 eV

Virial components:
Potential Energy   :      -1994.72795477001955 Eh          -54279.30716 eV
Kinetic Energy     :        994.24771327004123 Eh           27054.85572 eV
Virial Ratio       :          2.00626858693940

DFT components:
N(Alpha)           :       83.000097968721 electrons
N(Beta)            :       83.000097968721 electrons
N(Total)           :      166.000195937441 electrons
E(X)               :     -108.116698095681 Eh       
E(C)               :       -6.592346991300 Eh       
E(XC)              :     -114.709045086982 Eh       

CPCM Solvation Model Properties:
Surface-charge          :         -0.04558859881571
Corrected charge        :          0.00000000000000
Outlying charge corr.   :          0.00009738834367 Eh               0.00265 eV
Free-energy (cav+disp)  :  This term is not implemented in the current solvation scheme

---------------
SCF CONVERGENCE
---------------

  Last Energy change         ...   -1.6666e-09  Tolerance :   1.0000e-08
  Last MAX-Density change    ...    7.8597e-02  Tolerance :   1.0000e-07
  Last RMS-Density change    ...    2.0405e-03  Tolerance :   5.0000e-09
  Last DIIS Error            ...    1.1398e-03  Tolerance :   5.0000e-07
  Last Orbital Gradient      ...    1.3011e-05  Tolerance :   1.0000e-05
  Last Orbital Rotation      ...    1.6042e-05  Tolerance :   1.0000e-05


----------------
ORBITAL ENERGIES
----------------

  NO   OCC          E(Eh)            E(eV) 
   0   2.0000     -19.192737      -522.2609 
   1   2.0000     -19.180864      -521.9378 
   2   2.0000     -19.144010      -520.9350 
   3   2.0000     -10.280814      -279.7552 
   4   2.0000     -10.278798      -279.7003 
   5   2.0000     -10.263686      -279.2891 
   6   2.0000     -10.231228      -278.4059 
   7   2.0000     -10.205908      -277.7169 
   8   2.0000     -10.202864      -277.6340 
   9   2.0000     -10.202288      -277.6184 
  10   2.0000     -10.200906      -277.5808 
  11   2.0000     -10.198990      -277.5286 
  12   2.0000     -10.198449      -277.5139 
  13   2.0000     -10.197937      -277.5000 
  14   2.0000     -10.194898      -277.4173 
  15   2.0000     -10.194083      -277.3951 
  16   2.0000     -10.192535      -277.3530 
  17   2.0000     -10.190167      -277.2885 
  18   2.0000     -10.189315      -277.2653 
  19   2.0000     -10.181800      -277.0609 
  20   2.0000     -10.165830      -276.6263 
  21   2.0000     -10.165763      -276.6245 
  22   2.0000     -10.163922      -276.5744 
  23   2.0000      -1.086638       -29.5689 
  24   2.0000      -1.083783       -29.4912 
  25   2.0000      -1.034616       -28.1533 
  26   2.0000      -0.869630       -23.6638 
  27   2.0000      -0.863919       -23.5084 
  28   2.0000      -0.821776       -22.3617 
  29   2.0000      -0.790361       -21.5068 
  30   2.0000      -0.770622       -20.9697 
  31   2.0000      -0.759604       -20.6699 
  32   2.0000      -0.752863       -20.4864 
  33   2.0000      -0.739080       -20.1114 
  34   2.0000      -0.707961       -19.2646 
  35   2.0000      -0.681283       -18.5387 
  36   2.0000      -0.680064       -18.5055 
  37   2.0000      -0.661515       -18.0007 
  38   2.0000      -0.630243       -17.1498 
  39   2.0000      -0.617439       -16.8014 
  40   2.0000      -0.607139       -16.5211 
  41   2.0000      -0.589720       -16.0471 
  42   2.0000      -0.570515       -15.5245 
  43   2.0000      -0.550643       -14.9838 
  44   2.0000      -0.542137       -14.7523 
  45   2.0000      -0.521650       -14.1948 
  46   2.0000      -0.503350       -13.6969 
  47   2.0000      -0.489856       -13.3297 
  48   2.0000      -0.481126       -13.0921 
  49   2.0000      -0.473090       -12.8734 
  50   2.0000      -0.462846       -12.5947 
  51   2.0000      -0.459766       -12.5109 
  52   2.0000      -0.452916       -12.3245 
  53   2.0000      -0.449777       -12.2391 
  54   2.0000      -0.438171       -11.9232 
  55   2.0000      -0.435943       -11.8626 
  56   2.0000      -0.434147       -11.8137 
  57   2.0000      -0.430815       -11.7231 
  58   2.0000      -0.426895       -11.6164 
  59   2.0000      -0.417779       -11.3684 
  60   2.0000      -0.413980       -11.2650 
  61   2.0000      -0.403631       -10.9834 
  62   2.0000      -0.394030       -10.7221 
  63   2.0000      -0.391753       -10.6601 
  64   2.0000      -0.391116       -10.6428 
  65   2.0000      -0.378384       -10.2964 
  66   2.0000      -0.375926       -10.2295 
  67   2.0000      -0.371608       -10.1120 
  68   2.0000      -0.364159        -9.9093 
  69   2.0000      -0.362026        -9.8512 
  70   2.0000      -0.358837        -9.7645 
  71   2.0000      -0.350589        -9.5400 
  72   2.0000      -0.333153        -9.0656 
  73   2.0000      -0.329507        -8.9663 
  74   2.0000      -0.327551        -8.9131 
  75   2.0000      -0.324967        -8.8428 
  76   2.0000      -0.316138        -8.6026 
  77   2.0000      -0.273246        -7.4354 
  78   2.0000      -0.272067        -7.4033 
  79   2.0000      -0.265784        -7.2324 
  80   2.0000      -0.259515        -7.0618 
  81   2.0000      -0.242146        -6.5891 
  82   2.0000      -0.224939        -6.1209 
  83   0.0000      -0.081985        -2.2309 
  84   0.0000      -0.030027        -0.8171 
  85   0.0000      -0.018259        -0.4968 
  86   0.0000      -0.014855        -0.4042 
  87   0.0000       0.004802         0.1307 
  88   0.0000       0.012284         0.3343 
  89   0.0000       0.020154         0.5484 
  90   0.0000       0.024400         0.6640 
  91   0.0000       0.025308         0.6887 
  92   0.0000       0.029173         0.7938 
  93   0.0000       0.034300         0.9334 
*Only the first 10 virtual orbitals were printed.

                    ********************************
                    * MULLIKEN POPULATION ANALYSIS *
                    ********************************

-----------------------
MULLIKEN ATOMIC CHARGES
-----------------------
   0 C :   -0.572750
   1 C :    0.613464
   2 C :   -0.694000
   3 C :   -0.682249
   4 C :   -0.094150
   5 C :   -0.218073
   6 C :   -0.451968
   7 C :    0.864419
   8 C :   -1.213323
   9 C :   -0.123808
  10 C :    0.100271
  11 O :   -0.670841
  12 C :    1.084683
  13 C :   -1.159601
  14 O :   -0.605555
  15 C :    1.499052
  16 C :   -0.427924
  17 C :   -0.956603
  18 C :   -0.053212
  19 O :   -0.404007
  20 C :   -0.361653
  21 C :    0.412734
  22 C :   -1.104163
  23 H :    0.220130
  24 H :    0.226721
  25 H :    0.227220
  26 H :    0.223618
  27 H :    0.218821
  28 H :    0.223590
  29 H :    0.222415
  30 H :    0.219556
  31 H :    0.223478
  32 H :    0.205764
  33 H :    0.224071
  34 H :    0.215030
  35 H :    0.209789
  36 H :    0.582062
  37 H :    0.215253
  38 H :    0.218244
  39 H :    0.218220
  40 H :    0.225991
  41 H :    0.226509
  42 H :    0.226803
  43 H :    0.218664
  44 H :    0.227309
Sum of atomic charges:    0.0000000

--------------------------------
MULLIKEN REDUCED ORBITAL CHARGES
--------------------------------
  0 C s       :     3.475611  s :     3.475611
      pz      :     0.991071  p :     3.062601
      px      :     0.984164
      py      :     1.087365
      dz2     :     0.005482  d :     0.034538
      dxz     :     0.007250
      dyz     :     0.008813
      dx2y2   :     0.011093
      dxy     :     0.001899

  1 C s       :     2.693779  s :     2.693779
      pz      :     0.923389  p :     2.644160
      px      :     0.815126
      py      :     0.905645
      dz2     :     0.007884  d :     0.048597
      dxz     :     0.011032
      dyz     :     0.010101
      dx2y2   :     0.012890
      dxy     :     0.006690

  2 C s       :     3.554751  s :     3.554751
      pz      :     0.970998  p :     3.104715
      px      :     1.101394
      py      :     1.032323
      dz2     :     0.005510  d :     0.034534
      dxz     :     0.010636
      dyz     :     0.005610
      dx2y2   :     0.011362
      dxy     :     0.001416

  3 C s       :     3.547376  s :     3.547376
      pz      :     1.082765  p :     3.100345
      px      :     1.100126
      py      :     0.917454
      dz2     :     0.003446  d :     0.034528
      dxz     :     0.008568
      dyz     :     0.009697
      dx2y2   :     0.009173
      dxy     :     0.003644

  4 C s       :     2.933731  s :     2.933731
      pz      :     1.285618  p :     3.119944
      px      :     0.869846
      py      :     0.964480
      dz2     :     0.009455  d :     0.040475
      dxz     :     0.012467
      dyz     :     0.005801
      dx2y2   :     0.006514
      dxy     :     0.006239

  5 C s       :     2.923220  s :     2.923220
      pz      :     1.005216  p :     3.258943
      px      :     1.254517
      py      :     0.999210
      dz2     :     0.007768  d :     0.035910
      dxz     :     0.013290
      dyz     :     0.004566
      dx2y2   :     0.005668
      dxy     :     0.004617

  6 C s       :     3.345786  s :     3.345786
      pz      :     0.838966  p :     3.069891
      px      :     1.268215
      py      :     0.962711
      dz2     :     0.009425  d :     0.036290
      dxz     :     0.010287
      dyz     :     0.003820
      dx2y2   :     0.005847
      dxy     :     0.006911

  7 C s       :     2.648662  s :     2.648662
      pz      :     0.666345  p :     2.448050
      px      :     0.775628
      py      :     1.006077
      dz2     :     0.009324  d :     0.038869
      dxz     :     0.011869
      dyz     :     0.005720
      dx2y2   :     0.006392
      dxy     :     0.005564

  8 C s       :     4.072032  s :     4.072032
      pz      :     1.098779  p :     3.104789
      px      :     0.998817
      py      :     1.007192
      dz2     :     0.008103  d :     0.036502
      dxz     :     0.012939
      dyz     :     0.004900
      dx2y2   :     0.005679
      dxy     :     0.004880

  9 C s       :     3.061143  s :     3.061143
      pz      :     1.013781  p :     3.026913
      px      :     1.018843
      py      :     0.994289
      dz2     :     0.009895  d :     0.035751
      dxz     :     0.009745
      dyz     :     0.003859
      dx2y2   :     0.006033
      dxy     :     0.006219

 10 C s       :     3.136221  s :     3.136221
      pz      :     0.770102  p :     2.686220
      px      :     1.201518
      py      :     0.714601
      dz2     :     0.021763  d :     0.077288
      dxz     :     0.019897
      dyz     :     0.015134
      dx2y2   :     0.009886
      dxy     :     0.010608

 11 O s       :     3.949598  s :     3.949598
      pz      :     1.395931  p :     4.693162
      px      :     1.617871
      py      :     1.679359
      dz2     :     0.008817  d :     0.028081
      dxz     :     0.004522
      dyz     :     0.005741
      dx2y2   :     0.007478
      dxy     :     0.001523

 12 C s       :     1.706182  s :     1.706182
      pz      :     1.113101  p :     3.179458
      px      :     1.006809
      py      :     1.059548
      dz2     :     0.006936  d :     0.029677
      dxz     :     0.008554
      dyz     :     0.004352
      dx2y2   :     0.005472
      dxy     :     0.004363

 13 C s       :     4.317867  s :     4.317867
      pz      :     0.904203  p :     2.754853
      px      :     1.137111
      py      :     0.713539
      dz2     :     0.021611  d :     0.086880
      dxz     :     0.028743
      dyz     :     0.015604
      dx2y2   :     0.008982
      dxy     :     0.011940

 14 O s       :     3.948268  s :     3.948268
      pz      :     1.326463  p :     4.633525
      px      :     1.799081
      py      :     1.507980
      dz2     :     0.008383  d :     0.023762
      dxz     :     0.004761
      dyz     :     0.006812
      dx2y2   :     0.002544
      dxy     :     0.001263

 15 C s       :     2.410746  s :     2.410746
      pz      :     0.686530  p :     2.052451
      px      :     0.435317
      py      :     0.930604
      dz2     :     0.008609  d :     0.037751
      dxz     :     0.011403
      dyz     :     0.005434
      dx2y2   :     0.006473
      dxy     :     0.005833

 16 C s       :     3.455699  s :     3.455699
      pz      :     1.031489  p :     2.935134
      px      :     0.974776
      py      :     0.928869
      dz2     :     0.008016  d :     0.037090
      dxz     :     0.011751
      dyz     :     0.005303
      dx2y2   :     0.006625
      dxy     :     0.005395

 17 C s       :     3.940683  s :     3.940683
      pz      :     1.010911  p :     2.981910
      px      :     0.946327
      py      :     1.024673
      dz2     :     0.007620  d :     0.034009
      dxz     :     0.009345
      dyz     :     0.004706
      dx2y2   :     0.006062
      dxy     :     0.006275

 18 C s       :     3.291529  s :     3.291529
      pz      :     1.068388  p :     2.688642
      px      :     0.641930
      py      :     0.978323
      dz2     :     0.014302  d :     0.073041
      dxz     :     0.022064
      dyz     :     0.008154
      dx2y2   :     0.012917
      dxy     :     0.015603

 19 O s       :     3.862247  s :     3.862247
      pz      :     1.612408  p :     4.512304
      px      :     1.163002
      py      :     1.736894
      dz2     :     0.004261  d :     0.029456
      dxz     :     0.010493
      dyz     :     0.003579
      dx2y2   :     0.004728
      dxy     :     0.006395

 20 C s       :     3.368199  s :     3.368199
      pz      :     1.073295  p :     2.935172
      px      :     0.737347
      py      :     1.124530
      dz2     :     0.009331  d :     0.058283
      dxz     :     0.015527
      dyz     :     0.007993
      dx2y2   :     0.016210
      dxy     :     0.009221

 21 C s       :     2.099343  s :     2.099343
      pz      :     1.071338  p :     3.453690
      px      :     1.312510
      py      :     1.069841
      dz2     :     0.007876  d :     0.034233
      dxz     :     0.010089
      dyz     :     0.004994
      dx2y2   :     0.006712
      dxy     :     0.004562

 22 C s       :     3.969548  s :     3.969548
      pz      :     1.039239  p :     3.097731
      px      :     1.093206
      py      :     0.965287
      dz2     :     0.008254  d :     0.036883
      dxz     :     0.009637
      dyz     :     0.004807
      dx2y2   :     0.006415
      dxy     :     0.007771

 23 H s       :     0.779870  s :     0.779870

 24 H s       :     0.773279  s :     0.773279

 25 H s       :     0.772780  s :     0.772780

 26 H s       :     0.776382  s :     0.776382

 27 H s       :     0.781179  s :     0.781179

 28 H s       :     0.776410  s :     0.776410

 29 H s       :     0.777585  s :     0.777585

 30 H s       :     0.780444  s :     0.780444

 31 H s       :     0.776522  s :     0.776522

 32 H s       :     0.794236  s :     0.794236

 33 H s       :     0.775929  s :     0.775929

 34 H s       :     0.784970  s :     0.784970

 35 H s       :     0.790211  s :     0.790211

 36 H s       :     0.417938  s :     0.417938

 37 H s       :     0.784747  s :     0.784747

 38 H s       :     0.781756  s :     0.781756

 39 H s       :     0.781780  s :     0.781780

 40 H s       :     0.774009  s :     0.774009

 41 H s       :     0.773491  s :     0.773491

 42 H s       :     0.773197  s :     0.773197

 43 H s       :     0.781336  s :     0.781336

 44 H s       :     0.772691  s :     0.772691



                     *******************************
                     * LOEWDIN POPULATION ANALYSIS *
                     *******************************

----------------------
LOEWDIN ATOMIC CHARGES
----------------------
   0 C :   -0.501673
   1 C :   -0.251512
   2 C :   -0.486700
   3 C :   -0.487189
   4 C :   -0.111747
   5 C :   -0.198382
   6 C :   -0.151881
   7 C :   -0.106588
   8 C :   -0.163465
   9 C :   -0.198976
  10 C :    0.127745
  11 O :   -0.453593
  12 C :   -0.288762
  13 C :    0.136220
  14 O :   -0.476438
  15 C :   -0.134632
  16 C :   -0.157623
  17 C :   -0.189556
  18 C :    0.052356
  19 O :   -0.393200
  20 C :   -0.253549
  21 C :   -0.225748
  22 C :   -0.137599
  23 H :    0.204905
  24 H :    0.206141
  25 H :    0.206335
  26 H :    0.205928
  27 H :    0.203047
  28 H :    0.208030
  29 H :    0.205741
  30 H :    0.203098
  31 H :    0.208129
  32 H :    0.231372
  33 H :    0.240555
  34 H :    0.230986
  35 H :    0.232713
  36 H :    0.450211
  37 H :    0.240307
  38 H :    0.232108
  39 H :    0.237150
  40 H :    0.210743
  41 H :    0.208104
  42 H :    0.208154
  43 H :    0.236521
  44 H :    0.242213

-------------------------------
LOEWDIN REDUCED ORBITAL CHARGES
-------------------------------
  0 C s       :     2.995294  s :     2.995294
      pz      :     1.143827  p :     3.439757
      px      :     1.129573
      py      :     1.166357
      dz2     :     0.010435  d :     0.066621
      dxz     :     0.015450
      dyz     :     0.016340
      dx2y2   :     0.020726
      dxy     :     0.003670

  1 C s       :     2.873238  s :     2.873238
      pz      :     1.099268  p :     3.266042
      px      :     1.067483
      py      :     1.099291
      dz2     :     0.017316  d :     0.112232
      dxz     :     0.026434
      dyz     :     0.023830
      dx2y2   :     0.031233
      dxy     :     0.013420

  2 C s       :     2.997171  s :     2.997171
      pz      :     1.112587  p :     3.423025
      px      :     1.165969
      py      :     1.144469
      dz2     :     0.010988  d :     0.066504
      dxz     :     0.019710
      dyz     :     0.012362
      dx2y2   :     0.020938
      dxy     :     0.002506

  3 C s       :     2.997139  s :     2.997139
      pz      :     1.159112  p :     3.423562
      px      :     1.167274
      py      :     1.097176
      dz2     :     0.006559  d :     0.066488
      dxz     :     0.015442
      dyz     :     0.018691
      dx2y2   :     0.018801
      dxy     :     0.006995

  4 C s       :     2.867351  s :     2.867351
      pz      :     1.102872  p :     3.145790
      px      :     1.097325
      py      :     0.945593
      dz2     :     0.024888  d :     0.098606
      dxz     :     0.032790
      dyz     :     0.013054
      dx2y2   :     0.015150
      dxy     :     0.012724

  5 C s       :     2.892455  s :     2.892455
      pz      :     1.091843  p :     3.221482
      px      :     1.122098
      py      :     1.007540
      dz2     :     0.019776  d :     0.084446
      dxz     :     0.032094
      dyz     :     0.009933
      dx2y2   :     0.012957
      dxy     :     0.009686

  6 C s       :     2.894726  s :     2.894726
      pz      :     1.101448  p :     3.172550
      px      :     1.095230
      py      :     0.975873
      dz2     :     0.020447  d :     0.084604
      dxz     :     0.026407
      dyz     :     0.006589
      dx2y2   :     0.016101
      dxy     :     0.015060

  7 C s       :     2.840238  s :     2.840238
      pz      :     1.093877  p :     3.167037
      px      :     1.056878
      py      :     1.016282
      dz2     :     0.025220  d :     0.099314
      dxz     :     0.033060
      dyz     :     0.012997
      dx2y2   :     0.016276
      dxy     :     0.011761

  8 C s       :     2.894365  s :     2.894365
      pz      :     1.082024  p :     3.184097
      px      :     1.123138
      py      :     0.978935
      dz2     :     0.020265  d :     0.085002
      dxz     :     0.030893
      dyz     :     0.010695
      dx2y2   :     0.013083
      dxy     :     0.010065

  9 C s       :     2.893102  s :     2.893102
      pz      :     1.104472  p :     3.221622
      px      :     1.109416
      py      :     1.007735
      dz2     :     0.021625  d :     0.084252
      dxz     :     0.025708
      dyz     :     0.006653
      dx2y2   :     0.016798
      dxy     :     0.013469

 10 C s       :     2.815657  s :     2.815657
      pz      :     0.929284  p :     2.875740
      px      :     1.098624
      py      :     0.847833
      dz2     :     0.050902  d :     0.180858
      dxz     :     0.050112
      dyz     :     0.034882
      dx2y2   :     0.022388
      dxy     :     0.022573

 11 O s       :     3.530868  s :     3.530868
      pz      :     1.510068  p :     4.867332
      px      :     1.650924
      py      :     1.706341
      dz2     :     0.018395  d :     0.055393
      dxz     :     0.010587
      dyz     :     0.012256
      dx2y2   :     0.011478
      dxy     :     0.002676

 12 C s       :     2.878989  s :     2.878989
      pz      :     1.121375  p :     3.336154
      px      :     1.062019
      py      :     1.152761
      dz2     :     0.015847  d :     0.073619
      dxz     :     0.023775
      dyz     :     0.008116
      dx2y2   :     0.015617
      dxy     :     0.010264

 13 C s       :     2.815197  s :     2.815197
      pz      :     0.965353  p :     2.844521
      px      :     1.070263
      py      :     0.808905
      dz2     :     0.050095  d :     0.204063
      dxz     :     0.072037
      dyz     :     0.035890
      dx2y2   :     0.019840
      dxy     :     0.026201

 14 O s       :     3.563823  s :     3.563823
      pz      :     1.491546  p :     4.861086
      px      :     1.822307
      py      :     1.547233
      dz2     :     0.018772  d :     0.051528
      dxz     :     0.010936
      dyz     :     0.014974
      dx2y2   :     0.004249
      dxy     :     0.002598

 15 C s       :     2.846615  s :     2.846615
      pz      :     1.080476  p :     3.190764
      px      :     1.068966
      py      :     1.041322
      dz2     :     0.022403  d :     0.097253
      dxz     :     0.031527
      dyz     :     0.013231
      dx2y2   :     0.016829
      dxy     :     0.013263

 16 C s       :     2.896244  s :     2.896244
      pz      :     1.071200  p :     3.175282
      px      :     1.123972
      py      :     0.980111
      dz2     :     0.019546  d :     0.086097
      dxz     :     0.028140
      dyz     :     0.012131
      dx2y2   :     0.014669
      dxy     :     0.011610

 17 C s       :     2.895587  s :     2.895587
      pz      :     1.094509  p :     3.213055
      px      :     1.075472
      py      :     1.043075
      dz2     :     0.016708  d :     0.080914
      dxz     :     0.024928
      dyz     :     0.008269
      dx2y2   :     0.016701
      dxy     :     0.014308

 18 C s       :     2.813674  s :     2.813674
      pz      :     1.049302  p :     2.960918
      px      :     0.971426
      py      :     0.940189
      dz2     :     0.034155  d :     0.173053
      dxz     :     0.055256
      dyz     :     0.019390
      dx2y2   :     0.030386
      dxy     :     0.033866

 19 O s       :     3.481559  s :     3.481559
      pz      :     1.703211  p :     4.840809
      px      :     1.358672
      py      :     1.778926
      dz2     :     0.009497  d :     0.070831
      dxz     :     0.025000
      dyz     :     0.005289
      dx2y2   :     0.015396
      dxy     :     0.015649

 20 C s       :     2.962924  s :     2.962924
      pz      :     1.121166  p :     3.174597
      px      :     0.892588
      py      :     1.160843
      dz2     :     0.017726  d :     0.116028
      dxz     :     0.033387
      dyz     :     0.014594
      dx2y2   :     0.031363
      dxy     :     0.018959

 21 C s       :     2.891229  s :     2.891229
      pz      :     1.070920  p :     3.253227
      px      :     1.128133
      py      :     1.054174
      dz2     :     0.019793  d :     0.081291
      dxz     :     0.024942
      dyz     :     0.012009
      dx2y2   :     0.014686
      dxy     :     0.009862

 22 C s       :     2.896484  s :     2.896484
      pz      :     1.090201  p :     3.155241
      px      :     1.092530
      py      :     0.972510
      dz2     :     0.017997  d :     0.085874
      dxz     :     0.024774
      dyz     :     0.008392
      dx2y2   :     0.017284
      dxy     :     0.017427

 23 H s       :     0.795095  s :     0.795095

 24 H s       :     0.793859  s :     0.793859

 25 H s       :     0.793665  s :     0.793665

 26 H s       :     0.794072  s :     0.794072

 27 H s       :     0.796953  s :     0.796953

 28 H s       :     0.791970  s :     0.791970

 29 H s       :     0.794259  s :     0.794259

 30 H s       :     0.796902  s :     0.796902

 31 H s       :     0.791871  s :     0.791871

 32 H s       :     0.768628  s :     0.768628

 33 H s       :     0.759445  s :     0.759445

 34 H s       :     0.769014  s :     0.769014

 35 H s       :     0.767287  s :     0.767287

 36 H s       :     0.549789  s :     0.549789

 37 H s       :     0.759693  s :     0.759693

 38 H s       :     0.767892  s :     0.767892

 39 H s       :     0.762850  s :     0.762850

 40 H s       :     0.789257  s :     0.789257

 41 H s       :     0.791896  s :     0.791896

 42 H s       :     0.791846  s :     0.791846

 43 H s       :     0.763479  s :     0.763479

 44 H s       :     0.757787  s :     0.757787



                      *****************************
                      * MAYER POPULATION ANALYSIS *
                      *****************************

  NA   - Mulliken gross atomic population
  ZA   - Total nuclear charge
  QA   - Mulliken gross atomic charge
  VA   - Mayer's total valence
  BVA  - Mayer's bonded valence
  FA   - Mayer's free valence

  ATOM       NA         ZA         QA         VA         BVA        FA
  0 C      6.5727     6.0000    -0.5727     3.0781     3.0781    -0.0000
  1 C      5.3865     6.0000     0.6135     2.4277     2.4277    -0.0000
  2 C      6.6940     6.0000    -0.6940     3.4104     3.4104     0.0000
  3 C      6.6822     6.0000    -0.6822     3.3840     3.3840     0.0000
  4 C      6.0941     6.0000    -0.0941     3.3277     3.3277     0.0000
[...]
  0-1A  ->  6-1A    4.841198   39046.9   256.1   0.021085289   0.17777  -0.21861   0.16244  -0.32186
  0-1A  ->  7-1A    4.961867   40020.2   249.9   0.084014405   0.69112   0.05394   0.33783  -0.75768
  0-1A  ->  8-1A    5.104148   41167.7   242.9   0.007577687   0.06060   0.20221   0.06540  -0.12422
  0-1A  ->  9-1A    5.185158   41821.1   239.1   0.010715060   0.08435   0.25808  -0.04067   0.12684
  0-1A  -> 10-1A    5.380047   43393.0   230.5   0.198505085   1.50601   1.17020  -0.19201   0.31587
  0-1A  -> 11-1A    5.485876   44246.6   226.0   0.030313800   0.22555   0.11852   0.19050  -0.41858
  0-1A  -> 12-1A    5.587070   45062.8   221.9   0.003950068   0.02886  -0.02459   0.14518   0.08471
  0-1A  -> 13-1A    5.613270   45274.1   220.9   0.009962818   0.07244  -0.21197  -0.09991   0.13241
  0-1A  -> 14-1A    5.707304   46032.5   217.2   0.000203490   0.00146  -0.01881   0.02939  -0.01542
  0-1A  -> 15-1A    5.760519   46461.7   215.2   0.001131930   0.00802   0.00639  -0.07452  -0.04926
  0-1A  -> 16-1A    5.862462   47283.9   211.5   0.002642513   0.01840   0.06481   0.09086   0.07709
  0-1A  -> 17-1A    5.900638   47591.9   210.1   0.100222143   0.69328   0.79249  -0.10000   0.23502
  0-1A  -> 18-1A    5.948423   47977.3   208.4   0.002963263   0.02033   0.05031   0.12544   0.04546
  0-1A  -> 19-1A    6.052162   48814.0   204.9   0.016020284   0.10804   0.25915   0.19797  -0.04115
  0-1A  -> 20-1A    6.061710   48891.0   204.5   0.014706037   0.09902   0.25604  -0.12296  -0.13545
  0-1A  -> 21-1A    6.076585   49011.0   204.0   0.000257764   0.00173  -0.00906   0.02717   0.03018
  0-1A  -> 22-1A    6.105429   49243.6   203.1   0.000073458   0.00049   0.01753  -0.01353  -0.00095

----------------------------------------------------------------------------------------------------
                     ABSORPTION SPECTRUM VIA TRANSITION VELOCITY DIPOLE MOMENTS    
----------------------------------------------------------------------------------------------------
     Transition      Energy     Energy  Wavelength fosc(P2)      P2        PX        PY        PZ   
                      (eV)      (cm-1)    (nm)                 (au**2)    (au)      (au)      (au)  
----------------------------------------------------------------------------------------------------
  0-1A  ->  1-1A    3.517539   28370.9   352.5   0.673439656   0.13058   0.36076  -0.00394  -0.02045
  0-1A  ->  2-1A    3.945881   31825.7   314.2   0.000039282   0.00001  -0.00281  -0.00048  -0.00065
  0-1A  ->  3-1A    4.111527   33161.7   301.6   0.038675926   0.00877   0.09053   0.00725  -0.02275
  0-1A  ->  4-1A    4.263131   34384.5   290.8   0.001903033   0.00045  -0.01598  -0.00383   0.01332
  0-1A  ->  5-1A    4.397133   35465.3   282.0   0.001996416   0.00048  -0.02058  -0.00263   0.00730
  0-1A  ->  6-1A    4.841198   39046.9   256.1   0.000776672   0.00021   0.00918  -0.00438   0.01019
  0-1A  ->  7-1A    4.961867   40020.2   249.9   0.010558980   0.00289  -0.00873  -0.02264   0.04795
  0-1A  ->  8-1A    5.104148   41167.7   242.9   0.003989338   0.00112   0.01247   0.01297  -0.02826
  0-1A  ->  9-1A    5.185158   41821.1   239.1   0.006675613   0.00191  -0.01893  -0.01426   0.03669
  0-1A  -> 10-1A    5.380047   43393.0   230.5   0.111516155   0.03307  -0.18175   0.00632  -0.00014
  0-1A  -> 11-1A    5.485876   44246.6   226.0   0.003651306   0.00110  -0.01433  -0.01225   0.02737
  0-1A  -> 12-1A    5.587070   45062.8   221.9   0.001191415   0.00037   0.00391  -0.01623  -0.00940
  0-1A  -> 13-1A    5.613270   45274.1   220.9   0.003264688   0.00101   0.02860   0.00871  -0.01079
  0-1A  -> 14-1A    5.707304   46032.5   217.2   0.000029382   0.00001   0.00275   0.00051   0.00119
  0-1A  -> 15-1A    5.760519   46461.7   215.2   0.000482983   0.00015  -0.00212   0.01103   0.00523
  0-1A  -> 16-1A    5.862462   47283.9   211.5   0.001910402   0.00062  -0.00887  -0.02065  -0.01059
  0-1A  -> 17-1A    5.900638   47591.9   210.1   0.038673847   0.01258  -0.11131  -0.00073   0.01371
  0-1A  -> 18-1A    5.948423   47977.3   208.4   0.000588080   0.00019  -0.00839  -0.01085  -0.00221
  0-1A  -> 19-1A    6.052162   48814.0   204.9   0.003826940   0.00128  -0.00882  -0.03405  -0.00629
  0-1A  -> 20-1A    6.061710   48891.0   204.5   0.005117892   0.00171  -0.01301   0.03487   0.01802
  0-1A  -> 21-1A    6.076585   49011.0   204.0   0.000174509   0.00006  -0.00106  -0.00668  -0.00356
  0-1A  -> 22-1A    6.105429   49243.6   203.1   0.000022437   0.00001  -0.00227   0.00138   0.00071

------------------------------------------------------------------------------------------
                     CD SPECTRUM VIA TRANSITION ELECTRIC DIPOLE MOMENTS    
------------------------------------------------------------------------------------------
     Transition      Energy     Energy  Wavelength    R        MX        MY        MZ   
                      (eV)      (cm-1)    (nm)   (1e40*cgs)   (au)      (au)      (au)  
------------------------------------------------------------------------------------------
  0-1A  ->  1-1A    3.517539   28370.9   352.5   -1.28687  -0.01453  -0.37213  -0.17331
  0-1A  ->  2-1A    3.945881   31825.7   314.2    1.94253   0.00343  -0.05787   0.16395
  0-1A  ->  3-1A    4.111527   33161.7   301.6   -1.69296  -0.01002  -0.23710  -0.10802
  0-1A  ->  4-1A    4.263131   34384.5   290.8   -0.75040   0.00399  -0.08767  -0.02669
  0-1A  ->  5-1A    4.397133   35465.3   282.0   -0.13646  -0.00337  -0.11902  -0.05603
  0-1A  ->  6-1A    4.841198   39046.9   256.1    0.86037   0.00826   0.06484   0.03279
  0-1A  ->  7-1A    4.961867   40020.2   249.9   -3.47473  -0.00079   0.11184   0.04008
  0-1A  ->  8-1A    5.104148   41167.7   242.9    0.72524  -0.00121  -0.06376  -0.02315
  0-1A  ->  9-1A    5.185158   41821.1   239.1    0.90334  -0.00579   0.00910  -0.00040
  0-1A  -> 10-1A    5.380047   43393.0   230.5    0.21708   0.00522   0.11697   0.05031
  0-1A  -> 11-1A    5.485876   44246.6   226.0   -1.46544   0.00176   0.19038   0.07972
  0-1A  -> 12-1A    5.587070   45062.8   221.9    1.92098   0.15204   0.03604  -0.06574
  0-1A  -> 13-1A    5.613270   45274.1   220.9   -1.76975  -0.02439   0.00184  -0.00930
  0-1A  -> 14-1A    5.707304   46032.5   217.2   -1.74064  -0.03086   0.04569  -0.11472
  0-1A  -> 15-1A    5.760519   46461.7   215.2   -0.03000  -0.04725   0.01905  -0.03624
  0-1A  -> 16-1A    5.862462   47283.9   211.5    6.57814  -0.03508   0.14245  -0.31939
  0-1A  -> 17-1A    5.900638   47591.9   210.1   -3.20068  -0.00168   0.04220   0.05250
  0-1A  -> 18-1A    5.948423   47977.3   208.4   -1.12283   0.03040  -0.05605   0.17339
  0-1A  -> 19-1A    6.052162   48814.0   204.9   31.33055  -0.08727  -0.24331  -0.10516
  0-1A  -> 20-1A    6.061710   48891.0   204.5  -29.05603   0.08814  -0.21783  -0.09066
  0-1A  -> 21-1A    6.076585   49011.0   204.0   -0.21759  -0.04871   0.04290  -0.03795
  0-1A  -> 22-1A    6.105429   49243.6   203.1    0.27621  -0.03134   0.00329  -0.00841

------------------------------------------------------------------------------------------
                     CD SPECTRUM VIA TRANSITION VELOCITY DIPOLE MOMENTS    
------------------------------------------------------------------------------------------
     Transition      Energy     Energy  Wavelength    R        MX        MY        MZ   
                      (eV)      (cm-1)    (nm)   (1e40*cgs)   (au)      (au)      (au)  
------------------------------------------------------------------------------------------
  0-1A  ->  1-1A    3.517539   28370.9   352.5   -0.83694  -0.01453  -0.37213  -0.17331
  0-1A  ->  2-1A    3.945881   31825.7   314.2   -0.28519   0.00343  -0.05787   0.16395
  0-1A  ->  3-1A    4.111527   33161.7   301.6   -0.52542  -0.01002  -0.23710  -0.10802
  0-1A  ->  4-1A    4.263131   34384.5   290.8   -0.25179   0.00399  -0.08767  -0.02669
  0-1A  ->  5-1A    4.397133   35465.3   282.0   -0.07853  -0.00337  -0.11902  -0.05603
  0-1A  ->  6-1A    4.841198   39046.9   256.1    0.33433   0.00826   0.06484   0.03279
  0-1A  ->  7-1A    4.961867   40020.2   249.9   -1.55961  -0.00079   0.11184   0.04008
  0-1A  ->  8-1A    5.104148   41167.7   242.9   -0.47199  -0.00121  -0.06376  -0.02315
  0-1A  ->  9-1A    5.185158   41821.1   239.1   -0.08654  -0.00579   0.00910  -0.00040
  0-1A  -> 10-1A    5.380047   43393.0   230.5   -0.51499   0.00522   0.11697   0.05031
  0-1A  -> 11-1A    5.485876   44246.6   226.0   -0.41157   0.00176   0.19038   0.07972
  0-1A  -> 12-1A    5.587070   45062.8   221.9    1.44068   0.15204   0.03604  -0.06574
  0-1A  -> 13-1A    5.613270   45274.1   220.9   -1.32789  -0.02439   0.00184  -0.00930
  0-1A  -> 14-1A    5.707304   46032.5   217.2   -0.44491  -0.03086   0.04569  -0.11472
  0-1A  -> 15-1A    5.760519   46461.7   215.2    0.26880  -0.04725   0.01905  -0.03624
  0-1A  -> 16-1A    5.862462   47283.9   211.5    1.64409  -0.03508   0.14245  -0.31939
  0-1A  -> 17-1A    5.900638   47591.9   210.1    1.90351  -0.00168   0.04220   0.05250
  0-1A  -> 18-1A    5.948423   47977.3   208.4   -0.06451   0.03040  -0.05605   0.17339
  0-1A  -> 19-1A    6.052162   48814.0   204.9   20.59389  -0.08727  -0.24331  -0.10516
  0-1A  -> 20-1A    6.061710   48891.0   204.5  -21.96111   0.08814  -0.21783  -0.09066
  0-1A  -> 21-1A    6.076585   49011.0   204.0   -0.21103  -0.04871   0.04290  -0.03795
  0-1A  -> 22-1A    6.105429   49243.6   203.1    0.14644  -0.03134   0.00329  -0.00841

Total run time:      796.660 sec

           *** ORCA-CIS/TD-DFT FINISHED WITHOUT ERROR ***
-----------------------
CIS/TD-DFT TOTAL ENERGY
-----------------------

    E(SCF)  =  -1000.480241500 Eh
    DE(CIS) =      0.129267180 Eh (Root  1)
    ----------------------------- ---------
    E(tot)  =  -1000.350974320 Eh


Maximum memory used throughout the entire CIS-calculation: 904.2 MB
=> NOW LEAVING ORCA_CIS

-------------------------   --------------------
FINAL SINGLE POINT ENERGY     -1000.350974319919
-------------------------   --------------------



           ************************************************************
           *        Program running with 4 parallel MPI-processes     *
           *              working on a common directory               *
           ************************************************************

------------------------------------------------------------------------------
                              ORCA PROPERTY CALCULATIONS
------------------------------------------------------------------------------

GBWName                                 ... td.gbw
Number of atoms                         ...     45
Number of basis functions               ...    458
Max core memory                         ...   2500 MB

Electric properties:
Dipole moment                           ... YES
Quadrupole moment                       ...  NO
Static polarizability (Dipole/Dipole)   ...  NO
Static polarizability (Dipole/Quad.)    ...  NO
Static polarizability (Quad./Quad.)     ...  NO
Static polarizability (Velocity)        ...  NO
Static hyperpolarizability              ...  NO

Atomic electric properties:
Dipole moment                           ...  NO
Quadrupole moment                       ...  NO
Static polarizability                   ...  NO

Choice of electric origin               ... Center of mass
Position of electric origin             ...     1.210340     0.162023    -0.498887

General magnetic properties:
Magnetizability                         ...  NO

EPR properties:
g-Tensor (aka g-matrix)                 ...  NO
Zero-Field splitting spin-orbit         ...  NO
Zero-field splitting spin-spin          ...  NO
Hyperfine couplings                     ...  NO (   0 nuclei)
Quadrupole couplings                    ...  NO (   0 nuclei)
Contact density                         ...  NO (   0 nuclei)

NMR properties:
Chemical shifts                         ...  NO (   0 nuclei)
Spin-rotation constants                 ...  NO (   0 nuclei)
Spin-spin couplings                     ...  NO (   0 nuclei,    0 pairs)

Choice of magnetic origin               ... GIAO
Position of magnetic origin             ...     0.000000     0.000000     0.000000

Properties with geometric perturbations:
SCF Hessian                             ...  NO
IR spectrum                             ...  NO
VCD spectrum                            ...  NO
X-ray spectroscopy properties:
SCF XES/XAS/RIXS spectra                ...  NO

SCF SOC stabilization energy            ...  NO
Diagonal Born-Oppenheimer correction    ...  NO

-------------
DIPOLE MOMENT
-------------

Method             : SCF
Type of density    : Electron Density
Multiplicity       :   1
Irrep              :   0
Energy             : -1000.4802414999783196 Eh
Basis              : AO
                                X                 Y                 Z
Electronic contribution:     26.833672140       3.561877024      -9.387775527
Nuclear contribution   :    -26.622495753      -4.331659261      11.023216910
                        -----------------------------------------
Total Dipole Moment    :      0.211176387      -0.769782237       1.635441382
                        -----------------------------------------
Magnitude (a.u.)       :      1.819843035
Magnitude (Debye)      :      4.625673388



--------------------
Rotational spectrum 
--------------------
 
Rotational constants in cm-1:             0.024910             0.002523             0.002328 
Rotational constants in MHz :           746.791397            75.639829            69.799933 

Dipole components along the rotational axes: 
x,y,z [a.u.] :     0.175855    -1.811248    -0.016886 
x,y,z [Debye]:     0.446989    -4.603826    -0.042920 

 

Dipole moment calculation done in   0.0 sec 

Maximum memory used throughout the entire PROP-calculation: 31.0 MB

--------------------------------
SUGGESTED CITATIONS FOR THIS RUN
--------------------------------

Below you find a list of papers that are relevant to this ORCA run
We neither can nor want to force you to cite these papers, but we appreciate if you do
You receive ORCA, which is the product of decades of hard work by many enthusiastic individuals, for free
The only thing we kindly ask in return is that you cite our papers,
We deeply appreciate it, if you show your appreciation for ORCA by not just citing the generic ORCA reference.

Please note that relegating all ORCA citations to the supporting information does *not* help us.
SI sections are not indexed - citations you put there will not count into any citation statistics
But we need these citations in order to attract the funding resources that allow us to do what we are doing

Therefore, if you are a happy ORCA user, please consider citing a few of the papers listed below in the main body of your paper

In addition to the list printed below, the program has created the file td.bibtex that contains the list in bibtex format
You can import this file easily into all common literature databanks and citation aid programs

It goes without saying that in many instances, there are alternative algorithms to achieve similar
results as the ones you have gotten from ORCA. It is, of course, also the case that in some instances
ORCA just re-implements algorithms worked out by others. We are fully aware of that and we are also
fully appreciative of our colleagues work. Hence this citation list should not be read as indicating
that the listed papers, which are focused on our own work, are the only ones worth citing. It simply
meant to make it easier for users to cite ORCA specific papers. It is not a substitute for doing your
own literature research and citing the relevant literature in a scientifically appropriate manner.

List of essential papers. We consider these as the minimum necessary citations

  1. Neese, F.
     Software update: the ORCA program system, version 6.0
     WIRES Comput. Molec. Sci. 2025 15(1), e70019
     doi.org/10.1002/wcms.70019

List of papers to cite with high priority. The work reported in these papers was absolutely
necessary for this run to complete.
Our perspective: the developers of density functionals and basis sets usually get cited in chemistry papers
Good! But without the algorithms to do something with them, the functionals or basis sets would not do anything.
Hence, in our opinion, the algorithm design and method developments papers are equally worthy of getting cited

  1. Neese, F.; Olbrich, G.
     Efficient use of the resolution of the identity approximation in time-dependent density functional calculations with hybrid density functionals
     Chem. Phys. Lett. 2002 362 , 170-178
     doi.org/10.1016/s0009-2614(02)01053-9
  2. Neese, F.
     An improvement of the resolution of the identity approximation for the formation of the Coulomb matrix
     J. Comp. Chem. 2003 24(14), 1740-1747
     doi.org/10.1002/jcc.10318
  3. Neese, F.; Wennmohs, F.; Hansen, A.; Becker, U.
     Efficient, approximate and parallel Hartree-Fock and hybrid DFT calculations. A 'chain-of-spheres' algorithm for the Hartree-Fock exchange
     Chem. Phys. 2009 356(1-3), 98-109
     doi.org/10.1016/j.chemphys.2008.10.036
  4. Garcia-Rates, M.; Neese, F.
     Effect of the Solute Cavity on the Solvation Energy and its Derivatives within the Framework of the Gaussian Charge Scheme
     J. Comput. Chem. 2020 41 , 922-939
     doi.org/10.1002/jcc.26139
  5. Helmich-Paris, B.; de Souza, B.; Neese, F.; Izsák, R.
     An improved chain of spheres for exchange algorithm
     J. Chem. Phys. 2021 155(10), 104109
     doi.org/10.1063/5.0058766
  6. Neese, F.
     The SHARK Integral Generation and Digestion System
     J. Comp. Chem. 2022 44(3), 381
     doi.org/10.1002/jcc.26942

List of suggested additional citations. These are papers that are important in the 'surrounding' of 
of this run, or papers that preceded the highly important papers. If you like your results we are grateful for a citation.

  1. Izsak, R.; Neese, F.
     An overlap fitted chain of spheres exchange method
     J. Chem. Phys. 2011 135 , 144105
     doi.org/10.1063/1.3646921
  2. Izsak, R.; Hansen, A.; Neese, F.
     The resolution of identity and chain of spheres approximations for the LPNO-CCSD singles Fock term
     Molec. Phys. 2012 110 , 2413-2417
     doi.org/10.1080/00268976.2012.687466
  3. Neese, F.
     The ORCA program system
     WIRES Comput. Molec. Sci. 2012 2(1), 73-78
     doi.org/10.1002/wcms.81
  4. Izsak, R.; Neese, F.; Klopper, W.
     Robust fitting techniques in the chain of spheres approximation to the Fock exchange: The role of the complementary space
     J. Chem. Phys. 2013 139 , 
     doi.org/10.1063/1.4819264
  5. Neese, F.
     Software update: the ORCA program system, version 4.0
     WIRES Comput. Molec. Sci. 2018 8(1), 1-6
     doi.org/10.1002/wcms.1327
  6. Neese, F.; Wennmohs, F.; Becker, U.; Riplinger, C.
     The ORCA quantum chemistry program package
     J. Chem. Phys. 2020 152(22), 224108
     doi.org/10.1063/5.0004608
  7. Neese, F.
     Software update: The ORCA program system—Version 5.0
     WIRES Comput. Molec. Sci. 2022 12(1), e1606
     doi.org/10.1002/wcms.1606

List of optional additional citations

  1. Neese, F.
     Approximate second-order SCF convergence for spin unrestricted wavefunctions
     Chem. Phys. Lett. 2000 325(1-3), 93-98
     doi.org/10.1016/s0009-2614(00)00662-x

Timings for individual modules:

Sum of individual times          ...     1166.873 sec (=  19.448 min)
Startup calculation              ...        7.179 sec (=   0.120 min)   0.6 %
SCF iterations                   ...      361.763 sec (=   6.029 min)  31.0 %
Property integrals               ...        0.653 sec (=   0.011 min)   0.1 %
Property calculations            ...        0.325 sec (=   0.005 min)   0.0 %
CIS module                       ...      796.953 sec (=  13.283 min)  68.3 %
                             ****ORCA TERMINATED NORMALLY****
TOTAL RUN TIME: 0 days 0 hours 19 minutes 27 seconds 959 msec
