
                                 *****************
                                 * O   R   C   A *
                                 *****************

                                            #,                                       
                                            ###                                      
                                            ####                                     
                                            #####                                    
                                            ######                                   
                                           ########,                                 
                                     ,,################,,,,,                         
                               ,,#################################,,                 
                          ,,##########################################,,             
                       ,#########################################, ''#####,          
                    ,#############################################,,   '####,        
                  ,##################################################,,,,####,       
                ,###########''''           ''''###############################       
              ,#####''   ,,,,##########,,,,          '''####'''          '####       
            ,##' ,,,,###########################,,,                        '##       
           ' ,,###''''                  '''############,,,                           
         ,,##''                                '''############,,,,        ,,,,,,###''
      ,#''                                            '''#######################'''  
     '                                                          ''''####''''         
             ,#######,   #######,   ,#######,      ##                                
            ,#'     '#,  ##    ##  ,#'     '#,    #''#        ,####,    ,#,          
            ##       ##  ##   ,#'  ##            #'  '#       #'       ,# #          
            ##       ##  #######   ##           ,######,      #####,      #          
            '#,     ,#'  ##    ##  '#,     ,#' ,#      #,     #,   #      #          
             '#######'   ##     ##  '#######'  #'      '#     '####' #    #          



                #########################################################
                #                        -***-                          #
                #          Department of theory and spectroscopy        #
                #                                                       #
                #                      Frank Neese                      #
                #                                                       #
                #     Directorship, Architecture, Infrastructure        #
                #                    SHARK, DRIVERS                     #
                #        Core code/Algorithms in most modules           #
                #                                                       #
                #        Max Planck Institute fuer Kohlenforschung      #
                #                Kaiser Wilhelm Platz 1                 #
                #                 D-45470 Muelheim/Ruhr                 #
                #                      Germany                          #
                #                                                       #
                #                  All rights reserved                  #
                #                        -***-                          #
                #########################################################


                         Program Version 6.1.1  -  RELEASE   -


 With contributions from (in alphabetic order):
[Max-Planck-Institut fuer Kohlenforschung]                               
  Daniel Aravena         : Magnetic Suceptibility                        
  Michael Atanasov       : Ab Initio Ligand Field Theory (pilot matlab implementation)
  Alexander A. Auer      : GIAO ZORA, VPT2 properties, NMR spectrum      
  Ute Becker             : All parallelization in ORCA, NUMFREQ, NUMCALC 
  Giovanni Bistoni       : ED, misc. LED, open-shell LED, HFLD           
  Dmytro Bykov           : pre 5.0 version of the SCF Hessian            
  Marcos Casanova-Páez   : Triplet and SCS-CIS(D). UHF-(DLPNO)-IP/EA/STEOM-CCSD. UHF-CVS-IP/STEOM-CCSD   
  Vijay G. Chilkuri      : MRCI spin determinant printing, contributions to CSF-ICE 
  Pauline Colinet        : FMM embedding                                 
  Dipayan Datta          : RHF DLPNO-CCSD density                        
  Achintya Kumar Dutta   : EOM-CC, STEOM-CC                              
  Nicolas Foglia         : Exact transition moments, OPA infrastructure, MCD improvements    
  Dmitry Ganyushin       : Spin-Orbit,Spin-Spin,Magnetic field MRCI      
  Miquel Garcia-Rates    : C-PCM and meta-GGA Hessian, CCSD/C-PCM, Gaussian charge scheme 
  Tiago L. C. Gouveia    : GS-ROHF, GS-ROCIS                             
  Yang Guo               : DLPNO-NEVPT2, F12-NEVPT2, CIM, IAO-localization        
  Andreas Hansen         : Spin unrestricted coupled pair/coupled cluster methods 
  Ingolf Harden          : AUTO-CI MPn and infrastructure                
  Benjamin Helmich-Paris : MC-RPA, TRAH-(SCF,CASSCF), AVAS, COSX integrals, SCF dyn. polar., MC-PDFT, srDFT 
  Lee Huntington         : MR-EOM, pCC                                   
  Robert Izsak           : Overlap fitted RIJCOSX, COSX-SCS-MP3, EOM     
  Riya Kayal             : Wick's Theorem for AUTO-CI, AUTO-CI UHF-CCSDT 
  Emily Kempfer          : AUTO-CI RHF CISDT and CCSDT, approximate NEVPT4
  Christian Kollmar      : KDIIS, OOCD, Brueckner-CCSD(T), CCSD density, CASPT2, CASPT2-K, improved NEVPT2 
  Axel Koslowski         : Symmetry handling                             
  Simone Kossmann        : meta-GGA functionals, TD-DFT gradient, OOMP2, (MP2 Hessian; deprecated post 5.0) 
  Lucas Lang             : DCDCAS, Hyperfine gauge corrections, ICE-SOC+SSC
  Marvin Lechner         : AUTO-CI (C++ implementation), FIC-MRCC        
  Spencer Leger          : CASSCF response                               
  Dagmar Lenk            : GEPOL surface, SMD, ORCA-2-JSON               
  Dimitrios Liakos       : Extrapolation schemes; Compound Job, Property file
  Dimitrios Manganas     : Further ROCIS development; embedding schemes. LFT, Crystal Embedding 
  Dimitrios Pantazis     : SARC Basis sets                               
  Anastasios Papadopoulos: AUTO-CI, single reference methods and gradients 
  Taras Petrenko         : pre 6.0 DFT Hessian and TD-DFT gradient,  ECA, NRVS 
  Petra Pikulova         : Analytic Raman intensities                    
  Peter Pinski           : DLPNO-MP2, DLPNO-MP2 Gradient                 
  Shashank Vittal Rao    : ES-AILFT, MagRelax                            
  Christoph Reimann      : Effective Core Potentials                     
  Marius Retegan         : Local ZFS, SOC                                
  Christoph Riplinger    : Optimizer, TS searches, QM/MM, DLPNO-CCSD(T), (RO)-DLPNO pert. Triples 
  Michael Roemelt        : Original ROCIS implementation, recursive CI coupling coefficients
  Masaaki Saitow         : Open-shell DLPNO-CCSD energy and density      
  Barbara Sandhoefer     : DKH picture change effects                    
  Yorick L. A. Schmerwitz: GMF and freeze-and-release deltaSCF, NEB S-IDPP initial path                    
  Kantharuban Sivalingam : CASSCF convergence/infrastructure, NEVPT2, NEVPT3, NEVPT4(SD), FIC-MRCI and CEPA variants
  Bernardo de Souza      : ESD, SOC TD-DFT                               
  Georgi L. Stoychev     : AutoAux, RI-MP2 NMR, DLPNO-MP2 response, X2C  
  Van Anh Tran           : RI-MP2 g-tensors                              
  Willem Van den Heuvel  : Paramagnetic NMR                              
  Zikuan Wang            : NOTCH, Electric field optimization            
  Frank Wennmohs         : Technical directorship and infrastructure     
  Hang Xu                : AUTO-CI-Response properties                   
                                                                         
[FACCTs GmbH]                                                            
  Markus Bursch, Nicolas Foglia, Miquel Garcia-Rates, Ingolf Harden, Hagen Neugebauer, Anastasios Papadopoulos, 
  Christoph Riplinger, Bernardo de Souza, Georgi L. Stoychev                                                    
                                                                 
  APM, various basis sets, CI-OPT, improved COSX, DLPNO-Multilevel,           
  DOCKER, DRACO, updates on ESD, Fragmentator, GOAT, IRC, LR-CPCM, L-BFGS, MBIS, meta-GGA TD-DFT gradient, ML-optimized integration grids, 
  MM, NACMEs, nearIR, NEB, NEB-TS, NL-DFT gradient (VV10), 2- and 3-layer-ONIOM, interface openCOSMO-RS, QMMM,   
  Crystal-QMMM, RESP, rigid body optimization, SF, symmetry and pop. for TD-DFT, various functionals, SOLVATOR                                   
                                                                         
[Other institutions]                                                     
  V. Asgeirsson          : NEB                                           
  Christoph Bannwarth    : sTDA-DFT, sTD-DFT, PBEh-3c, B97-3c, D3        
  Giovanni Bistoni       : ETS/NOCV, ADLD/ADEX, COVALED                  
  Martin Brehm           : Molecular dynamics                            
  Ronald Cardenas        : ETS/NOCV                                      
  Martina Colucci        : COVALED                                       
  Sebastian Ehlert       : rSCAN, r2SCAN, r2SCAN-3c, D4, dhf basis sets  
  Marvin Friede          : D4 for Fr, Ra, Ac-Lr                          
  Lars Goerigk           : TD-DFT with DH, B97 family of functionals     
  Stefan Grimme          : VdW corrections, initial TS optimization, DFT functionals, gCP, sTDA/sTD-DF 
  Waldemar Hujo          : DFT-NL                                        
  H. Jonsson             : NEB                                           
  Holger Kruse           : gCP                                           
  Marcel Mueller         : wB97X-3c, vDZP basis set                      
  Hagen Neugebauer       : wr2SCAN, Native XTB                           
  Gianluca Regni         : ADLD/ADEX                                     
  Tobias Risthaus        : pre 6.0 range-separated hybrid DFT and stability analysis
  Lukas Wittmann         : regularized MP2, r2SCAN double-hybrids, wr2SCAN        
                                                                         
We gratefully acknowledge several colleagues who have allowed us to      
interface, adapt or use parts of their codes:                            
  Ed Valeev, F. Pavosevic, A. Kumar             : LibInt (2-el integral package), F12 methods 
  Garnet Chan, S. Sharma, J. Yang, R. Olivares  : DMRG                   
  Ulf Ekstrom                                   : XCFun DFT Library      
  Mihaly Kallay                                 : mrcc  (arbitrary order and MRCC methods)
  Frank Weinhold                                : gennbo (NPA and NBO analysis)           
  Simon Mueller                                 : openCOSMO-RS                            
  Christopher J. Cramer and Donald G. Truhlar   : smd solvation model                     
  S Lehtola, MJT Oliveira, MAL Marques          : LibXC Library                           
  Liviu Ungur et al                             : ANISO software                          


 Your calculation uses the libint2 library for the computation of 2-el integrals
 For citations please refer to: http://libint.valeyev.net

 Your ORCA version has been built with support for libXC version: 7.0.0
 For citations please refer to: https://libxc.gitlab.io

 This ORCA versions uses:
   CBLAS   interface :  Fast vector & matrix operations
   LAPACKE interface :  Fast linear algebra routines
   Shared memory     :  Shared parallel matrices


  ***********************************
  * Starting time: Tue Jul 21 18:20:47 2026
  * Host name:     DESKTOP-19Q153E
  * Process ID:    34860
  * Working dir.:  C:\Users\ysm04\Documents\etc\uv_vis\calculations\02_tddft_orca\enolA\enolA_c000\b3lyp_631+gd\none\dftopt22
  ***********************************

NOTE: MaxCore=2500 MB was set to SCF,MP2,MDCI,CIPSI,MRCI,RASCI and CIS
      => If you want to overwrite this, your respective input block should be placed after the MaxCore statement
================================================================================

----- Orbital basis set information -----
Your calculation utilizes the basis: 6-31+G(d)
   H-He, Li-Ne : W. J. Hehre, R. Ditchfield and J.A. Pople, J. Chem. Phys. 56, 2257 (1972).
                 Note: He and Ne are unpublished basis sets taken from the Gaussian program.
                 Note: Li and B from J. D. Dill and J. A. Pople, J. Chem. Phys. 62, 2921 (1975).
   Na - Ar     : M. M. Francl, W. J. Pietro, W. J. Hehre, J. S. Binkley, M. S. Gordon, 
                 D. J. DeFrees and J. A. Pople, J. Chem. Phys. 77, 3654 (1982).
   K - Zn      : V. A. Rassolov, J. A. Pople, M. A. Ratner, and T. L. Windus, J. Chem. Phys. 109, 1223 (1998).
   Additional Pol./Diff. from the 6-311G equivalent.

----- AuxJ basis set information -----
Your calculation utilizes the auxiliary basis: def2/J
   H-Rn: F. Weigend, Phys. Chem. Chem. Phys. 8, 1057 (2006).
   Fr-Lr: K. Eichkorn, F. Weigend, O. Treutler, R. Ahlrichs; Theor. Chem. Acc. 97, 119 (1997).

================================================================================
                                        WARNINGS
                       Please study these warnings very carefully!
================================================================================


WARNING: CIS/ROCIS methods need fully converged wavefunctions
  ===> : Setting SCFConvForced true
         You can overwrite this default with %scf ConvForced false 


================================================================================
                                       INPUT FILE
================================================================================
NAME = td.inp
|  1> # enolA / enolA_c000 / b3lyp_631+gd / solvent=none
|  2> ! B3LYP 6-31+G(d) RIJCOSX def2/J TightSCF
|  3> %pal nprocs 4 end
|  4> %maxcore 2500
|  5> %scf
|  6>   MaxIter 300
|  7> end
|  8> %tddft
|  9>   nroots 22
| 10>   tda    true
| 11>   maxdim 5
| 12> end
| 13> * xyz 0 1
| 14> C     -6.4464437539     0.1126843508    -0.2593233986
| 15> C     -5.3361748559    -0.1997566761     0.7608485581
| 16> C     -5.5371897047     0.7137443489     1.9936696337
| 17> C     -5.4722864059    -1.6803002750     1.1898519635
| 18> C     -3.9289767496     0.0334154976     0.1810493147
| 19> C     -3.7071144182     0.4984888100    -1.1266125553
| 20> C     -2.4164415614     0.6983681094    -1.6220910513
| 21> C     -1.2857629286     0.4362406950    -0.8291848868
| 22> C     -1.4983311564    -0.0265346848     0.4852593253
| 23> C     -2.7877900426    -0.2199399260     0.9719343279
| 24> C      0.0661703711     0.6497965916    -1.3897923632
| 25> O      0.0959623555     1.1970521222    -2.5936299767
| 26> C      1.2453135767     0.3092001534    -0.7436873683
| 27> C      2.5143919797     0.5518716766    -1.3809546772
| 28> O      2.5637497138     1.0794761367    -2.5280956999
| 29> C      3.7909493267     0.1872035299    -0.7074185620
| 30> C      3.8566385347    -0.4226743177     0.5648627044
| 31> C      5.0779430177    -0.7416595820     1.1430608111
| 32> C      6.2837306116    -0.4610959975     0.4677297204
| 33> O      7.4195074738    -0.8061302538     1.1074695819
| 34> C      8.6774055050    -0.5574544669     0.4926290353
| 35> C      6.2369092305     0.1464803654    -0.8015222796
| 36> C      5.0026336411     0.4597930029    -1.3684818177
| 37> H     -7.4303823884    -0.0730354629     0.1997522890
| 38> H     -6.4235142386     1.1655688153    -0.5825094635
| 39> H     -6.3715275103    -0.5231652080    -1.1558806775
| 40> H     -4.8001801122     0.5052431310     2.7846378949
| 41> H     -6.5415054293     0.5575691011     2.4210923868
| 42> H     -5.4469597023     1.7765308362     1.7155420539
| 43> H     -4.7326606539    -1.9552110716     1.9576123761
| 44> H     -6.4756107231    -1.8625293559     1.6091547159
| 45> H     -5.3355855113    -2.3541618969     0.3283118147
| 46> H     -4.5487296010     0.7132874607    -1.7855896260
| 47> H     -2.2801745558     1.0595150762    -2.6425276291
| 48> H     -0.6531578318    -0.2329382632     1.1444467590
| 49> H     -2.9038633140    -0.5776821109     1.9976351182
| 50> H      1.0918641651     1.2666262333    -2.8276495632
| 51> H      1.2023191057    -0.1496735751     0.2388864970
| 52> H      2.9465878604    -0.6567904380     1.1193437919
| 53> H      5.1286203622    -1.2138327796     2.1268720903
| 54> H      9.4401348508    -0.9175984082     1.1951761860
| 55> H      8.7740776218    -1.1038265241    -0.4608167348
| 56> H      8.8300752892     0.5196754114     0.3101075653
| 57> H      7.1517318187     0.3762545366    -1.3484469876
| 58> H      4.9636467270     0.9301998824    -2.3527211866
| 59> *
| 60> 
| 61>                          ****END OF INPUT****
================================================================================

                       ****************************
                       * Single Point Calculation *
                       ****************************

---------------------------------
CARTESIAN COORDINATES (ANGSTROEM)
---------------------------------
  C     -6.446444    0.112684   -0.259323
  C     -5.336175   -0.199757    0.760849
  C     -5.537190    0.713744    1.993670
  C     -5.472286   -1.680300    1.189852
  C     -3.928977    0.033415    0.181049
  C     -3.707114    0.498489   -1.126613
  C     -2.416442    0.698368   -1.622091
  C     -1.285763    0.436241   -0.829185
  C     -1.498331   -0.026535    0.485259
  C     -2.787790   -0.219940    0.971934
  C      0.066170    0.649797   -1.389792
  O      0.095962    1.197052   -2.593630
  C      1.245314    0.309200   -0.743687
  C      2.514392    0.551872   -1.380955
  O      2.563750    1.079476   -2.528096
  C      3.790949    0.187204   -0.707419
  C      3.856639   -0.422674    0.564863
  C      5.077943   -0.741660    1.143061
  C      6.283731   -0.461096    0.467730
  O      7.419507   -0.806130    1.107470
  C      8.677406   -0.557454    0.492629
  C      6.236909    0.146480   -0.801522
  C      5.002634    0.459793   -1.368482
  H     -7.430382   -0.073035    0.199752
  H     -6.423514    1.165569   -0.582509
  H     -6.371528   -0.523165   -1.155881
  H     -4.800180    0.505243    2.784638
  H     -6.541505    0.557569    2.421092
  H     -5.446960    1.776531    1.715542
  H     -4.732661   -1.955211    1.957612
  H     -6.475611   -1.862529    1.609155
  H     -5.335586   -2.354162    0.328312
  H     -4.548730    0.713287   -1.785590
  H     -2.280175    1.059515   -2.642528
  H     -0.653158   -0.232938    1.144447
  H     -2.903863   -0.577682    1.997635
  H      1.091864    1.266626   -2.827650
  H      1.202319   -0.149674    0.238886
  H      2.946588   -0.656790    1.119344
  H      5.128620   -1.213833    2.126872
  H      9.440135   -0.917598    1.195176
  H      8.774078   -1.103827   -0.460817
  H      8.830075    0.519675    0.310108
  H      7.151732    0.376255   -1.348447
  H      4.963647    0.930200   -2.352721

----------------------------
CARTESIAN COORDINATES (A.U.)
----------------------------
  NO LB      ZA    FRAG     MASS         X           Y           Z
   0 C     6.0000    0    12.011  -12.182013    0.212943   -0.490050
   1 C     6.0000    0    12.011  -10.083909   -0.377485    1.437795
   2 C     6.0000    0    12.011  -10.463772    1.348781    3.767490
   3 C     6.0000    0    12.011  -10.341123   -3.175307    2.248494
   4 C     6.0000    0    12.011   -7.424690    0.063146    0.342134
   5 C     6.0000    0    12.011   -7.005431    0.942007   -2.128989
   6 C     6.0000    0    12.011   -4.566413    1.319724   -3.065308
   7 C     6.0000    0    12.011   -2.429740    0.824375   -1.566932
   8 C     6.0000    0    12.011   -2.831436   -0.050143    0.917007
   9 C     6.0000    0    12.011   -5.268160   -0.415626    1.836690
  10 C     6.0000    0    12.011    0.125044    1.227938   -2.626327
  11 O     8.0000    0    15.999    0.181343    2.262101   -4.901250
  12 C     6.0000    0    12.011    2.353302    0.584304   -1.405365
  13 C     6.0000    0    12.011    4.751512    1.042886   -2.609626
  14 O     8.0000    0    15.999    4.844785    2.039914   -4.777409
  15 C     6.0000    0    12.011    7.163856    0.353763   -1.336827
  16 C     6.0000    0    12.011    7.287991   -0.798739    1.067436
  17 C     6.0000    0    12.011    9.595922   -1.401533    2.160072
  18 C     6.0000    0    12.011   11.874530   -0.871345    0.883881
  19 O     8.0000    0    15.999   14.020837   -1.523365    2.092814
  20 C     6.0000    0    12.011   16.397920   -1.053436    0.930934
  21 C     6.0000    0    12.011   11.786050    0.276808   -1.514658
  22 C     6.0000    0    12.011    9.453608    0.868883   -2.586056
  23 H     1.0000    0     1.008  -14.041388   -0.138017    0.377477
  24 H     1.0000    0     1.008  -12.138683    2.202606   -1.100783
  25 H     1.0000    0     1.008  -12.040442   -0.988639   -2.184298
  26 H     1.0000    0     1.008   -9.071026    0.954771    5.262203
  27 H     1.0000    0     1.008  -12.361654    1.053653    4.575202
  28 H     1.0000    0     1.008  -10.293262    3.357157    3.241905
  29 H     1.0000    0     1.008   -8.943433   -3.694813    3.699351
  30 H     1.0000    0     1.008  -12.237131   -3.519670    3.040862
  31 H     1.0000    0     1.008  -10.082795   -4.448721    0.620419
  32 H     1.0000    0     1.008   -8.595853    1.347918   -3.374275
  33 H     1.0000    0     1.008   -4.308905    2.002193   -4.993654
  34 H     1.0000    0     1.008   -1.234289   -0.440190    2.162691
  35 H     1.0000    0     1.008   -5.487506   -1.091661    3.774983
  36 H     1.0000    0     1.008    2.063324    2.393577   -5.343483
  37 H     1.0000    0     1.008    2.272054   -0.282842    0.451430
  38 H     1.0000    0     1.008    5.568244   -1.241154    2.115253
  39 H     1.0000    0     1.008    9.691688   -2.293812    4.019206
  40 H     1.0000    0     1.008   17.839270   -1.734010    2.258556
  41 H     1.0000    0     1.008   16.580604   -2.085930   -0.870817
  42 H     1.0000    0     1.008   16.686424    0.982044    0.586018
  43 H     1.0000    0     1.008   13.514815    0.711018   -2.548196
  44 H     1.0000    0     1.008    9.379933    1.757823   -4.445999

--------------------------------
INTERNAL COORDINATES (ANGSTROEM)
--------------------------------
 C      0   0   0     0.000000000000     0.00000000     0.00000000
 C      1   0   0     1.539827017036     0.00000000     0.00000000
 C      2   1   0     1.547494393062   108.32252607     0.00000000
 C      2   1   3     1.547442930816   108.32380625   118.59671689
 C      2   1   3     1.539721707196   112.25733399   239.31257266
 C      5   2   1     1.405523264216   123.00525437     0.90792869
 C      6   5   2     1.396884783226   121.54720552   180.05437645
 C      7   6   5     1.405647586614   121.09478317     0.22167811
 C      8   7   6     1.409648853560   117.76926951   359.59039694
 C      9   8   7     1.391747953000   120.75729722     0.25695190
 C      8   7   6     1.479057304639   119.63780405   179.55341126
 O     11   8   7     1.322724906314   115.16887244     5.71867714
 C     11   8   7     1.387024259868   124.40514727   186.17418321
 C     13  11   8     1.440680076952   120.09610843   179.61130818
 O     14  13  11     1.263619870924   120.41783059     0.24186954
 C     14  13  11     1.488701587248   120.92865880   180.31789940
 C     16  14  13     1.412432540645   123.58610579     0.79359268
 C     17  16  14     1.388398101997   121.01363246   179.92562899
 C     18  17  16     1.410216908357   120.46373683     0.00000000
 O     19  18  17     1.348445330416   116.23686621   179.98421279
 C     20  19  18     1.422032349010   119.68257916   179.95036917
 C     19  18  17     1.407956646345   119.28318389   359.97559811
 C     22  19  18     1.393931188133   119.54490686     0.00000000
 H      1   2   3     1.101534190394   109.49569801   300.44422457
 H      1   2   3     1.101608229273   111.91884918    59.63973691
 H      1   2   3     1.101695084554   111.90204027   181.21525631
 H      3   2   1     1.101038912813   111.93590592   177.27170678
 H      3   2   1     1.102601919358   110.09197542    57.48708006
 H      3   2   1     1.102275610529   110.94768857   297.99705327
 H      4   2   1     1.100944253931   111.91006265   182.66883369
 H      4   2   1     1.102579666773   110.09640422   302.47412699
 H      4   2   1     1.102283107032   110.93509981    61.96708588
 H      6   5   2     1.090277650863   120.37581830     0.00000000
 H      7   6   5     1.091002583753   119.63876979   179.94011247
 H      9   8   7     1.091534909446   120.55996048   180.73647294
 H     10   9   8     1.092480931830   118.18076985   180.13861984
 H     12  11   8     1.025390724634   104.93123783   180.32907171
 H     13  11   8     1.085294901865   119.46414074     0.23525067
 H     17  16  14     1.091078303319   120.77236401     0.00000000
 H     18  17  16     1.092428649779   121.00771313   180.03200025
 H     21  20  19     1.097739592233   106.29218002   179.91850040
 H     21  20  19     1.103144033922   111.38300309   298.82611001
 H     21  20  19     1.103100595932   111.39053386    60.98325592
 H     22  19  18     1.090331680661   121.01314900   179.97702950
 H     23  22  19     1.091572144682   119.68485751   180.04521979

---------------------------
INTERNAL COORDINATES (A.U.)
---------------------------
 C      0   0   0     0.000000000000     0.00000000     0.00000000
 C      1   0   0     2.909851355811     0.00000000     0.00000000
 C      2   1   0     2.924340596665   108.32252607     0.00000000
 C      2   1   3     2.924243347114   108.32380625   118.59671689
 C      2   1   3     2.909652349053   112.25733399   239.31257266
 C      5   2   1     2.656054044224   123.00525437     0.90792869
 C      6   5   2     2.639729680938   121.54720552   180.05437645
 C      7   6   5     2.656288979507   121.09478317     0.22167811
 C      8   7   6     2.663850278224   117.76926951   359.59039694
 C      9   8   7     2.630022478615   120.75729722     0.25695190
 C      8   7   6     2.795013242143   119.63780405   179.55341126
 O     11   8   7     2.499587823451   115.16887244     5.71867714
 C     11   8   7     2.621095992255   124.40514727   186.17418321
 C     13  11   8     2.722490792036   120.09610843   179.61130818
 O     14  13  11     2.387895493427   120.41783059     0.24186954
 C     14  13  11     2.813238295033   120.92865880   180.31789940
 C     16  14  13     2.669110684458   123.58610579     0.79359268
 C     17  16  14     2.623692177630   121.01363246   179.92562899
 C     18  17  16     2.664923746220   120.46373683     0.00000000
 O     19  18  17     2.548192381052   116.23686621   179.98421279
 C     20  19  18     2.687251693205   119.68257916   179.95036917
 C     19  18  17     2.660652470026   119.28318389   359.97559811
 C     22  19  18     2.634148195102   119.54490686     0.00000000
 H      1   2   3     2.081597946996   109.49569801   300.44422457
 H      1   2   3     2.081737860201   111.91884918    59.63973691
 H      1   2   3     2.081901992894   111.90204027   181.21525631
 H      3   2   1     2.080662008007   111.93590592   177.27170678
 H      3   2   1     2.083615662322   110.09197542    57.48708006
 H      3   2   1     2.082999028000   110.94768857   297.99705327
 H      4   2   1     2.080483128645   111.91006265   182.66883369
 H      4   2   1     2.083573611031   110.09640422   302.47412699
 H      4   2   1     2.083013194339   110.93509981    61.96708588
 H      6   5   2     2.060326170065   120.37581830     0.00000000
 H      7   6   5     2.061696094694   119.63876979   179.94011247
 H      9   8   7     2.062702044468   120.55996048   180.73647294
 H     10   9   8     2.064489767690   118.18076985   180.13861984
 H     12  11   8     1.937707649821   104.93123783   180.32907171
 H     13  11   8     2.050910139066   119.46414074     0.23525067
 H     17  16  14     2.061839183936   120.77236401     0.00000000
 H     18  17  16     2.064390968932   121.00771313   180.03200025
 H     21  20  19     2.074427195683   106.29218002   179.91850040
 H     21  20  19     2.084640110381   111.38300309   298.82611001
 H     21  20  19     2.084558024477   111.39053386    60.98325592
 H     22  19  18     2.060428271587   121.01314900   179.97702950
 H     23  22  19     2.062772408865   119.68485751   180.04521979

---------------------
BASIS SET INFORMATION
---------------------
There are 3 groups of distinct atoms

 Group   1 Type C   : 11s5p1d contracted to 4s3p1d pattern {6311/311/1}
 Group   2 Type O   : 11s5p1d contracted to 4s3p1d pattern {6311/311/1}
 Group   3 Type H   : 4s contracted to 2s pattern {31}

Atom   0C    basis set group =>   1
Atom   1C    basis set group =>   1
Atom   2C    basis set group =>   1
Atom   3C    basis set group =>   1
Atom   4C    basis set group =>   1
Atom   5C    basis set group =>   1
Atom   6C    basis set group =>   1
Atom   7C    basis set group =>   1
Atom   8C    basis set group =>   1
Atom   9C    basis set group =>   1
Atom  10C    basis set group =>   1
Atom  11O    basis set group =>   2
Atom  12C    basis set group =>   1
Atom  13C    basis set group =>   1
Atom  14O    basis set group =>   2
Atom  15C    basis set group =>   1
Atom  16C    basis set group =>   1
Atom  17C    basis set group =>   1
Atom  18C    basis set group =>   1
Atom  19O    basis set group =>   2
Atom  20C    basis set group =>   1
Atom  21C    basis set group =>   1
Atom  22C    basis set group =>   1
Atom  23H    basis set group =>   3
Atom  24H    basis set group =>   3
Atom  25H    basis set group =>   3
Atom  26H    basis set group =>   3
Atom  27H    basis set group =>   3
Atom  28H    basis set group =>   3
Atom  29H    basis set group =>   3
Atom  30H    basis set group =>   3
Atom  31H    basis set group =>   3
Atom  32H    basis set group =>   3
Atom  33H    basis set group =>   3
Atom  34H    basis set group =>   3
Atom  35H    basis set group =>   3
Atom  36H    basis set group =>   3
Atom  37H    basis set group =>   3
Atom  38H    basis set group =>   3
Atom  39H    basis set group =>   3
Atom  40H    basis set group =>   3
Atom  41H    basis set group =>   3
Atom  42H    basis set group =>   3
Atom  43H    basis set group =>   3
Atom  44H    basis set group =>   3
---------------------------------
AUXILIARY/J BASIS SET INFORMATION
---------------------------------
There are 3 groups of distinct atoms

 Group   1 Type C   : 12s5p4d2f1g contracted to 6s4p3d1f1g pattern {711111/2111/211/2/1}
 Group   2 Type O   : 12s5p4d2f1g contracted to 6s4p3d1f1g pattern {711111/2111/211/2/1}
 Group   3 Type H   : 5s2p1d contracted to 3s1p1d pattern {311/2/1}

Atom   0C    basis set group =>   1
Atom   1C    basis set group =>   1
Atom   2C    basis set group =>   1
Atom   3C    basis set group =>   1
Atom   4C    basis set group =>   1
Atom   5C    basis set group =>   1
Atom   6C    basis set group =>   1
Atom   7C    basis set group =>   1
Atom   8C    basis set group =>   1
Atom   9C    basis set group =>   1
Atom  10C    basis set group =>   1
Atom  11O    basis set group =>   2
Atom  12C    basis set group =>   1
Atom  13C    basis set group =>   1
Atom  14O    basis set group =>   2
Atom  15C    basis set group =>   1
Atom  16C    basis set group =>   1
Atom  17C    basis set group =>   1
Atom  18C    basis set group =>   1
Atom  19O    basis set group =>   2
Atom  20C    basis set group =>   1
Atom  21C    basis set group =>   1
Atom  22C    basis set group =>   1
Atom  23H    basis set group =>   3
Atom  24H    basis set group =>   3
Atom  25H    basis set group =>   3
Atom  26H    basis set group =>   3
Atom  27H    basis set group =>   3
Atom  28H    basis set group =>   3
Atom  29H    basis set group =>   3
Atom  30H    basis set group =>   3
Atom  31H    basis set group =>   3
Atom  32H    basis set group =>   3
Atom  33H    basis set group =>   3
Atom  34H    basis set group =>   3
Atom  35H    basis set group =>   3
Atom  36H    basis set group =>   3
Atom  37H    basis set group =>   3
Atom  38H    basis set group =>   3
Atom  39H    basis set group =>   3
Atom  40H    basis set group =>   3
Atom  41H    basis set group =>   3
Atom  42H    basis set group =>   3
Atom  43H    basis set group =>   3
Atom  44H    basis set group =>   3


           ************************************************************
           *        Program running with 4 parallel MPI-processes     *
           *              working on a common directory               *
           ************************************************************
------------------------------------------------------------------------------
                             ORCA STARTUP CALCULATIONS
                           -- RI-GTO INTEGRALS CHOSEN --
------------------------------------------------------------------------------
------------------------------------------------------------------------------
                   ___                                                        
                  /   \      - P O W E R E D   B Y -                         
                 /     \                                                     
                 |  |  |   _    _      __       _____    __    __             
                 |  |  |  | |  | |    /  \     |  _  \  |  |  /  |          
                  \  \/   | |  | |   /    \    | | | |  |  | /  /          
                 / \  \   | |__| |  /  /\  \   | |_| |  |  |/  /          
                |  |  |   |  __  | /  /__\  \  |    /   |      \           
                |  |  |   | |  | | |   __   |  |    \   |  |\   \          
                \     /   | |  | | |  |  |  |  | |\  \  |  | \   \       
                 \___/    |_|  |_| |__|  |__|  |_| \__\ |__|  \__/        
                                                                              
                      - O R C A' S   B I G   F R I E N D -                    
                                      &                                       
                       - I N T E G R A L  F E E D E R -                       
                                                                              
 v1 FN, 2020, v2 2021, v3 2022-2024                                           
------------------------------------------------------------------------------


----------------------
SHARK INTEGRAL PACKAGE
----------------------

Number of atoms                             ...     45
Number of basis functions                   ...    458
Number of shells                            ...    228
Maximum angular momentum                    ...      2
Integral batch strategy                     ... SHARK/LIBINT Hybrid
RI-J (if used) integral strategy            ... SPLIT-RIJ (Revised 2003 algorithm where possible)
Printlevel                                  ...      1
Contraction scheme used                     ... SEGMENTED contraction
Prescreening option                         ... SCHWARTZ
   Thresh                                   ... 2.500e-11
   Tcut                                     ... 2.500e-12
   Tpresel                                  ... 2.500e-12 
Coulomb Range Separation                    ... NOT USED
Exchange Range Separation                   ... NOT USED
Multipole approximations                    ... NOT USED
Finite Nucleus Model                        ... NOT USED
CABS basis                                  ... NOT available
Auxiliary Coulomb fitting basis             ... AVAILABLE
   # of basis functions in Aux-J            ...   1369
   # of shells in Aux-J                     ...    455
   Maximum angular momentum in Aux-J        ...      4
Auxiliary J/K fitting basis                 ... NOT available
Auxiliary Correlation fitting basis         ... NOT available
Auxiliary 'external' fitting basis          ... NOT available

Checking pre-screening integrals            ... done (  0.0 sec) Dimension = 228
   => SHARK Basis and OBASIS are compatible. Storing Pre-screening
Shell pair information
Shell pair cut-off parameter TPreSel        ...   2.5e-12
Total number of shell pairs                 ...     26106
Shell pairs after pre-screening             ...     18683
Total number of primitive shell pairs       ...    115509
Primitive shell pairs kept                  ...     50820
          la=0 lb=0:   6189 shell pairs
          la=1 lb=0:   7285 shell pairs
          la=1 lb=1:   2082 shell pairs
          la=2 lb=0:   1820 shell pairs
          la=2 lb=1:   1170 shell pairs
          la=2 lb=2:    137 shell pairs

Checking whether 4 symmetric matrices of dimension 458 fit in memory
:Max Core in MB      =   2500.00
 MB in use           =     22.34
 MB left             =   2477.66
 MB needed           =      3.21
 Data fit in memory  = YES
Calculating RI/J V-Matrix + Cholesky decomp.... done (  0.3 sec)
Calculating Nuclear repulsion               ... done (  0.0 sec) ENN=   1726.234492521343 Eh

Diagonalization of the overlap matrix:
Smallest eigenvalue                        ... 8.292e-08
Time for diagonalization                   ...    0.050 sec
Threshold for overlap eigenvalues          ... 1.000e-07
Number of eigenvalues below threshold      ... 1
Smallest eigenvalue above threshold        ... 1.847e-07

IMPORTANT:
Smallest eigenvalue of S below the DiffSThresh (1.000e-06) while
Thresh>1e-12 and/or TCut>1e-13! In order to avoid SCF convergence issues,
Thresh will be set to at least 1e-12 and TCut to at least 1e-13.
This can be turned off by adding %SCF DiffSThresh -1 END to the input.

Time for construction of square roots      ...    0.030 sec
Total time needed                          ...    0.084 sec

-------------------
DFT GRID GENERATION
-------------------

General Integration Accuracy     IntAcc      ... 4.388
Radial Grid Type                 RadialGrid  ... OptM3 with GC (2021)
Angular Grid (max. ang.)         AngularGrid ... 4 (Lebedev-302)
Angular grid pruning method      GridPruning ... 4 (adaptive)
Weight generation scheme         WeightScheme... mBecke (2022)
Basis function cutoff            BFCut       ... 1.0000e-11
Integration weight cutoff        WCut        ... 1.0000e-14
Partially contracted basis set               ... off
Rotationally invariant grid construction     ... off
Angular grids for H and He will be reduced by one unit
Diffuse basis detected: some atoms will have their outermost
                        angular grid increased by 1.

Total number of grid points                  ...   213129
Total number of batches                      ...     3353
Average number of points per batch           ...       63
Average number of grid points per atom       ...     4736

--------------------
COSX GRID GENERATION
--------------------

GRIDX 1
-------
General Integration Accuracy     IntAcc      ... 3.816
Radial Grid Type                 RadialGrid  ... OptM3 with GC (2021)
Angular Grid (max. ang.)         AngularGrid ... 1 (Lebedev-50)
Angular grid pruning method      GridPruning ... 4 (adaptive)
Weight generation scheme         WeightScheme... mBecke (2022)
Basis function cutoff            BFCut       ... 1.0000e-11
Integration weight cutoff        WCut        ... 1.0000e-14
Partially contracted basis set               ... on
Rotationally invariant grid construction     ... off
Angular grids for H and He will be reduced by one unit
Diffuse basis detected: some atoms will have their outermost
                        angular grid increased by 1.

Total number of grid points                  ...    27211
Total number of batches                      ...      240
Average number of points per batch           ...      113
Average number of grid points per atom       ...      605
UseSFitting                                  ... on

GRIDX 2
-------
General Integration Accuracy     IntAcc      ... 4.020
Radial Grid Type                 RadialGrid  ... OptM3 with GC (2021)
Angular Grid (max. ang.)         AngularGrid ... 2 (Lebedev-110)
Angular grid pruning method      GridPruning ... 4 (adaptive)
Weight generation scheme         WeightScheme... mBecke (2022)
Basis function cutoff            BFCut       ... 1.0000e-11
Integration weight cutoff        WCut        ... 1.0000e-14
Partially contracted basis set               ... on
Rotationally invariant grid construction     ... off
Angular grids for H and He will be reduced by one unit
Diffuse basis detected: some atoms will have their outermost
                        angular grid increased by 1.

Total number of grid points                  ...    62672
Total number of batches                      ...      513
Average number of points per batch           ...      122
Average number of grid points per atom       ...     1393
UseSFitting                                  ... on

GRIDX 3
-------
General Integration Accuracy     IntAcc      ... 4.338
Radial Grid Type                 RadialGrid  ... OptM3 with GC (2021)
Angular Grid (max. ang.)         AngularGrid ... 3 (Lebedev-194)
Angular grid pruning method      GridPruning ... 4 (adaptive)
Weight generation scheme         WeightScheme... mBecke (2022)
Basis function cutoff            BFCut       ... 1.0000e-11
Integration weight cutoff        WCut        ... 1.0000e-14
Partially contracted basis set               ... on
Rotationally invariant grid construction     ... off
Angular grids for H and He will be reduced by one unit
Diffuse basis detected: some atoms will have their outermost
                        angular grid increased by 1.

Total number of grid points                  ...   135184
Total number of batches                      ...     1080
Average number of points per batch           ...      125
Average number of grid points per atom       ...     3004
UseSFitting                                  ... on
Grids setup in   6.5 sec
Initializing property integral containers    ... done (  0.2 sec)

SHARK setup successfully completed in   7.5 seconds

Maximum memory used throughout the entire STARTUP-calculation: 66.5 MB


           ************************************************************
           *        Program running with 4 parallel MPI-processes     *
           *              working on a common directory               *
           ************************************************************
-------------------------------------------------------------------------------
                                 ORCA GUESS
                   Start orbitals & Density for SCF / CASSCF
-------------------------------------------------------------------------------

------------
SCF SETTINGS
------------
Hamiltonian:
 Density Functional     Method          .... DFT(GTOs)
 Exchange Functional    Exchange        .... B88
   X-Alpha parameter    XAlpha          ....  0.666667
   Becke's b parameter  XBeta           ....  0.004200
 Correlation Functional Correlation     .... LYP
 LDA part of GGA corr.  LDAOpt          .... VWN-5
 Gradients option       PostSCFGGA      .... off
 Hybrid DFT is turned on
   Fraction HF Exchange ScalHFX         ....  0.200000
   Scaling of DF-GGA-X  ScalDFX         ....  0.720000
   Scaling of DF-GGA-C  ScalDFC         ....  0.810000
   Scaling of DF-LDA-C  ScalLDAC        ....  1.000000
   Perturbative correction              ....  0.000000
   NL short-range parameter             ....  4.800000
 RI-approximation to the Coulomb term is turned on
   Number of AuxJ basis functions       .... 1369
   RIJ-COSX (HFX calculated with COS-X)).... on


General Settings:
 Integral files         IntName         .... td
 Hartree-Fock type      HFTyp           .... RHF
 Total Charge           Charge          ....    0
 Multiplicity           Mult            ....    1
 Number of Electrons    NEL             ....  166
 Basis Dimension        Dim             ....  458
 Nuclear Repulsion      ENuc            ....   1726.2344925213 Eh

Convergence Acceleration:
 AO-DIIS                CNVDIIS         .... on
   Start iteration      DIISMaxIt       ....    12
   Startup error        DIISStart       ....  0.200000
   # of expansion vecs  DIISMaxEq       ....     5
   Bias factor          DIISBfac        ....   1.050
   Max. coefficient     DIISMaxC        ....  10.000
 MO-DIIS                CNVKDIIS        .... off
 Trust-Rad. Augm. Hess. CNVTRAH         .... auto
   Auto Start mean grad. ratio tolernc. ....  1.125000
   Auto Start start iteration           ....    50
   Auto Start num. interpolation iter.  ....    10
   Max. Number of Micro iterations      ....    24
   Max. Number of Macro iterations      .... Maxiter - #DIIS iter
   Number of Davidson start vectors     ....     2
   Converg. threshold    (grad. norm)   ....   1.000e-05
   Grad. Scal. Fac. for Micro threshold ....   0.100
   Minimum threshold for Micro iter.    ....   1.000e-02
   NR start threshold (gradient norm)   ....   1.000e-04
   Initial trust radius                 ....   0.400
   Minimum AH scaling param. (alpha)    ....   1.000
   Maximum AH scaling param. (alpha)    .... 1000.000
   Quad. conv. algorithm                .... NR
   White noise on init. David. guess    .... on
   Maximum white noise                  ....   0.010
   Pseudo random numbers                .... off
   Inactive MOs                         .... canonical
   Orbital update algorithm             .... Taylor
   Preconditioner                       .... Diag
   Full preconditioner red. dimension   ....   250
 SOSCF                 CNVSOSCF           .... on
   Start iteration     SOSCFMaxIt         ....   150
   Startup grad/error  SOSCFStart         ....  0.003300
   Hessian update      SOSCFHessUp        .... L-BFGS
   Autom. constraints  SOSCFAutoConstrain .... off
 Level Shifting         CNVShift        .... on
   Level shift para.    LevelShift      ....    0.2500
   Turn off err/grad.   ShiftErr        ....    0.0010
 Zerner damping         CNVZerner       .... off
 Static damping         CNVDamp         .... on
   Fraction old density DampFac         ....    0.7000
   Max. Damping (<1)    DampMax         ....    0.9800
   Min. Damping (>=0)   DampMin         ....    0.0000
   Turn off err/grad.   DampErr         ....    0.1000

SCF Procedure:
 Maximum # iterations   MaxIter         ....   300
 SCF integral mode      SCFMode         .... Direct
   Integral package                     .... SHARK and LIBINT hybrid scheme
 Reset frequency        DirectResetFreq ....    20
 Integral Threshold     Thresh          ....  1.000e-12 Eh
 Primitive CutOff       TCut            ....  1.000e-13 Eh

Convergence Tolerance:
 Convergence Check Mode ConvCheckMode   .... Total+1el-Energy
 Convergence forced     ConvForced      .... 1
 Energy Change          TolE            ....  1.000e-08 Eh
 1-El. energy change                    ....  1.000e-05 Eh
 Orbital Gradient       TolG            ....  1.000e-05
 Orbital Rotation angle TolX            ....  1.000e-05
 DIIS Error             TolErr          ....  5.000e-07

------------------------------
INITIAL GUESS: MODEL POTENTIAL
------------------------------
Loading Hartree-Fock densities                     ... done
Calculating cut-offs                               ... done
Initializing the effective Hamiltonian             ... done
Setting up the integral package (SHARK)            ... done
Starting the Coulomb interaction                   ... done (   1.2 sec)
Making the grid                                    ... done (   0.8 sec)
Mapping shells                                     ... done
Starting the XC term evaluation                    ... done (   0.9 sec)
  promolecular density results
     # of electrons  =    165.988130090
     EX              =   -133.949395828
     EC              =     -5.597264580
     EX+EC           =   -139.546660408
Transforming the Hamiltonian                       ... done (   0.0 sec)
Diagonalizing the Hamiltonian                      ... done (   0.0 sec)
Back transforming the eigenvectors                 ... done (   0.0 sec)
Now organizing SCF variables                       ... done
                      ------------------
                      INITIAL GUESS DONE (   3.1 sec)
                      ------------------
             **** ENERGY FILE WAS UPDATED (td.en.tmp) ****
Finished Guess after   3.5 sec
Maximum memory used throughout the entire GUESS-calculation: 29.9 MB


           ************************************************************
           *        Program running with 4 parallel MPI-processes     *
           *              working on a common directory               *
           ************************************************************

-------------------------------------------------------------------------------------------
                                      ORCA LEAN-SCF
                              memory conserving SCF solver
-------------------------------------------------------------------------------------------

----------------------------------------D-I-I-S--------------------------------------------
Iteration    Energy (Eh)           Delta-E    RMSDP     MaxDP     DIISErr   Damp  Time(sec)
-------------------------------------------------------------------------------------------
               ***  Starting incremental Fock matrix formation  ***
    1    -999.9187881547809411     0.00e+00  2.45e-01  9.40e+00  2.37e-01  0.700  34.4
    2    -1000.1685264890970757    -2.50e-01  1.69e-01  6.60e+00  9.27e-02  0.700  17.4
                               ***Turning on AO-DIIS***
    3    -1000.2715676293128126    -1.03e-01  5.27e-02  3.39e+00  3.89e-02  0.700  16.4
    4    -1000.3321377582296918    -6.06e-02  1.83e-01  9.93e+00  1.98e-02  0.000  14.5
    5    -1000.4630534243892725    -1.31e-01  2.20e-02  8.51e-01  5.53e-03  0.000  14.6
                              *** Initializing SOSCF ***
---------------------------------------S-O-S-C-F--------------------------------------
Iteration    Energy (Eh)           Delta-E    RMSDP     MaxDP     MaxGrad    Time(sec)
--------------------------------------------------------------------------------------
    6    -1000.4637051758272719    -6.52e-04  8.45e-03  3.00e-01  1.36e-03    11.9
               *** Restarting incremental Fock matrix formation ***
    7    -1000.4636656108145871     3.96e-05  9.66e-02  4.03e+00  2.58e-04    26.4
    8    -1000.4636593514073866     6.26e-06  2.99e-02  1.33e+00  5.48e-04    21.5
    9    -1000.4636726291901141    -1.33e-05  3.31e-02  1.52e+00  1.02e-04    21.4
   10    -1000.4636741334957151    -1.50e-06  1.79e-03  7.44e-02  7.02e-05    21.7
   11    -1000.4636746967744330    -5.63e-07  7.71e-03  3.09e-01  3.61e-05    18.2
   12    -1000.4636743845544515     3.12e-07  2.15e-03  8.04e-02  4.11e-05    19.1
   13    -1000.4636745401257940    -1.56e-07  2.42e-03  1.19e-01  5.17e-06    17.8
   14    -1000.4636746329997550    -9.29e-08  1.79e-03  6.58e-02  7.55e-06    17.8
   15    -1000.4636746360665711    -3.07e-09  2.86e-03  2.04e-01  2.27e-06    17.3
                 **** Energy Check signals convergence ****

               *****************************************************
               *                     SUCCESS                       *
               *           SCF CONVERGED AFTER  15 CYCLES          *
               *****************************************************

Recomputing exchange energy using gridx3       ... done (   48.292 sec)
Old exchange energy                            :    -27.220950436 Eh
New exchange energy                            :    -27.220921684 Eh
Exchange energy change after final integration :      0.000028752 Eh
Total energy after final integration           :  -1000.463645835 Eh
             **** ENERGY FILE WAS UPDATED (td.en.tmp) ****

----------------
TOTAL SCF ENERGY
----------------

Total Energy       :      -1000.46364583472166 Eh          -27223.99984 eV

Components:
Nuclear Repulsion  :       1726.23449252134287 Eh           46973.22861 eV
Electronic Energy  :      -2726.69816710840860 Eh          -74197.22924 eV
One Electron Energy:      -4785.65305013217858 Eh         -130224.23997 eV
Two Electron Energy:       2058.95488302376998 Eh           56027.01073 eV

Virial components:
Potential Energy   :      -1994.68486560040083 Eh          -54278.13464 eV
Kinetic Energy     :        994.22121976567905 Eh           27054.13480 eV
Virial Ratio       :          2.00627870935053

DFT components:
N(Alpha)           :       83.000092339305 electrons
N(Beta)            :       83.000092339305 electrons
N(Total)           :      166.000184678611 electrons
E(X)               :     -108.109656681035 Eh       
E(C)               :       -6.591411553491 Eh       
E(XC)              :     -114.701068234526 Eh       

---------------
SCF CONVERGENCE
---------------

  Last Energy change         ...    3.0668e-09  Tolerance :   1.0000e-08
  Last MAX-Density change    ...    2.0444e-01  Tolerance :   1.0000e-07
  Last RMS-Density change    ...    2.8595e-03  Tolerance :   5.0000e-09
  Last DIIS Error            ...    1.3589e-03  Tolerance :   5.0000e-07
  Last Orbital Gradient      ...    2.2702e-06  Tolerance :   1.0000e-05
  Last Orbital Rotation      ...    8.1587e-06  Tolerance :   1.0000e-05


----------------
ORBITAL ENERGIES
----------------

  NO   OCC          E(Eh)            E(eV) 
   0   2.0000     -19.194637      -522.3126 
   1   2.0000     -19.169432      -521.6268 
   2   2.0000     -19.132399      -520.6190 
   3   2.0000     -10.273769      -279.5635 
   4   2.0000     -10.269905      -279.4583 
   5   2.0000     -10.263361      -279.2802 
   6   2.0000     -10.247321      -278.8438 
   7   2.0000     -10.209148      -277.8051 
   8   2.0000     -10.204902      -277.6895 
   9   2.0000     -10.204534      -277.6795 
  10   2.0000     -10.202870      -277.6342 
  11   2.0000     -10.200508      -277.5699 
  12   2.0000     -10.196526      -277.4616 
  13   2.0000     -10.195590      -277.4361 
  14   2.0000     -10.195354      -277.4297 
  15   2.0000     -10.194121      -277.3961 
  16   2.0000     -10.193864      -277.3891 
  17   2.0000     -10.193098      -277.3683 
  18   2.0000     -10.191537      -277.3258 
  19   2.0000     -10.177488      -276.9435 
  20   2.0000     -10.176131      -276.9066 
  21   2.0000     -10.176095      -276.9056 
  22   2.0000     -10.175349      -276.8853 
  23   2.0000      -1.086614       -29.5683 
  24   2.0000      -1.075171       -29.2569 
  25   2.0000      -1.022386       -27.8205 
  26   2.0000      -0.870720       -23.6935 
  27   2.0000      -0.862465       -23.4689 
  28   2.0000      -0.826624       -22.4936 
  29   2.0000      -0.788122       -21.4459 
  30   2.0000      -0.771414       -20.9912 
  31   2.0000      -0.759899       -20.6779 
  32   2.0000      -0.754524       -20.5316 
  33   2.0000      -0.739078       -20.1113 
  34   2.0000      -0.713141       -19.4056 
  35   2.0000      -0.691372       -18.8132 
  36   2.0000      -0.689851       -18.7718 
  37   2.0000      -0.659644       -17.9498 
  38   2.0000      -0.629101       -17.1187 
  39   2.0000      -0.618904       -16.8412 
  40   2.0000      -0.609289       -16.5796 
  41   2.0000      -0.589137       -16.0312 
  42   2.0000      -0.568360       -15.4659 
  43   2.0000      -0.556001       -15.1296 
  44   2.0000      -0.546376       -14.8676 
  45   2.0000      -0.520595       -14.1661 
  46   2.0000      -0.503041       -13.6884 
  47   2.0000      -0.490243       -13.3402 
  48   2.0000      -0.482427       -13.1275 
  49   2.0000      -0.482045       -13.1171 
  50   2.0000      -0.464342       -12.6354 
  51   2.0000      -0.461915       -12.5693 
  52   2.0000      -0.454855       -12.3772 
  53   2.0000      -0.449840       -12.2408 
  54   2.0000      -0.444765       -12.1027 
  55   2.0000      -0.436080       -11.8663 
  56   2.0000      -0.432210       -11.7610 
  57   2.0000      -0.430026       -11.7016 
  58   2.0000      -0.427945       -11.6450 
  59   2.0000      -0.423907       -11.5351 
  60   2.0000      -0.418252       -11.3812 
  61   2.0000      -0.401748       -10.9321 
  62   2.0000      -0.396205       -10.7813 
  63   2.0000      -0.395619       -10.7653 
  64   2.0000      -0.389803       -10.6071 
  65   2.0000      -0.381748       -10.3879 
  66   2.0000      -0.378056       -10.2874 
  67   2.0000      -0.373579       -10.1656 
  68   2.0000      -0.371589       -10.1115 
  69   2.0000      -0.366149        -9.9634 
  70   2.0000      -0.359609        -9.7855 
  71   2.0000      -0.352851        -9.6016 
  72   2.0000      -0.337361        -9.1801 
  73   2.0000      -0.335265        -9.1230 
  74   2.0000      -0.331417        -9.0183 
  75   2.0000      -0.326709        -8.8902 
  76   2.0000      -0.324032        -8.8174 
  77   2.0000      -0.269220        -7.3259 
  78   2.0000      -0.264280        -7.1914 
  79   2.0000      -0.260806        -7.0969 
  80   2.0000      -0.258791        -7.0421 
  81   2.0000      -0.238027        -6.4771 
  82   2.0000      -0.221596        -6.0299 
  83   0.0000      -0.075444        -2.0529 
  84   0.0000      -0.028190        -0.7671 
  85   0.0000      -0.016870        -0.4591 
  86   0.0000      -0.015273        -0.4156 
  87   0.0000      -0.003397        -0.0924 
  88   0.0000       0.002067         0.0562 
  89   0.0000       0.008909         0.2424 
  90   0.0000       0.020956         0.5702 
  91   0.0000       0.024054         0.6545 
  92   0.0000       0.027362         0.7446 
  93   0.0000       0.028019         0.7624 
*Only the first 10 virtual orbitals were printed.

                    ********************************
                    * MULLIKEN POPULATION ANALYSIS *
                    ********************************

-----------------------
MULLIKEN ATOMIC CHARGES
-----------------------
   0 C :   -0.509152
   1 C :    0.520108
   2 C :   -0.639856
   3 C :   -0.625611
   4 C :   -0.086636
   5 C :   -0.090957
   6 C :   -0.481597
   7 C :    0.957493
   8 C :   -1.331011
   9 C :   -0.007591
  10 C :    0.002237
  11 O :   -0.633658
  12 C :    1.091546
  13 C :   -1.352585
  14 O :   -0.535992
  15 C :    1.698608
  16 C :   -0.409985
  17 C :   -0.805337
  18 C :   -0.106053
  19 O :   -0.368977
  20 C :   -0.332211
  21 C :    0.598033
  22 C :   -1.356622
  23 H :    0.210929
  24 H :    0.219526
  25 H :    0.220374
  26 H :    0.211501
  27 H :    0.208467
  28 H :    0.220534
  29 H :    0.209939
  30 H :    0.209133
  31 H :    0.220269
  32 H :    0.179082
  33 H :    0.213859
  34 H :    0.175751
  35 H :    0.173264
  36 H :    0.575543
  37 H :    0.165314
  38 H :    0.177008
  39 H :    0.191699
  40 H :    0.209593
  41 H :    0.207213
  42 H :    0.207239
  43 H :    0.179896
  44 H :    0.219675
Sum of atomic charges:    0.0000000

--------------------------------
MULLIKEN REDUCED ORBITAL CHARGES
--------------------------------
  0 C s       :     3.428867  s :     3.428867
      pz      :     0.982906  p :     3.045701
      px      :     0.985104
      py      :     1.077691
      dz2     :     0.005503  d :     0.034584
      dxz     :     0.007254
      dyz     :     0.008815
      dx2y2   :     0.011109
      dxy     :     0.001903

  1 C s       :     2.671973  s :     2.671973
      pz      :     0.967480  p :     2.759297
      px      :     0.841927
      py      :     0.949890
      dz2     :     0.007871  d :     0.048622
      dxz     :     0.011028
      dyz     :     0.010128
      dx2y2   :     0.012844
      dxy     :     0.006751

  2 C s       :     3.520080  s :     3.520080
      pz      :     0.968628  p :     3.085225
      px      :     1.085064
      py      :     1.031533
      dz2     :     0.005497  d :     0.034551
      dxz     :     0.010650
      dyz     :     0.005615
      dx2y2   :     0.011361
      dxy     :     0.001428

  3 C s       :     3.510955  s :     3.510955
      pz      :     1.075440  p :     3.080109
      px      :     1.083526
      py      :     0.921143
      dz2     :     0.003454  d :     0.034548
      dxz     :     0.008603
      dyz     :     0.009656
      dx2y2   :     0.009199
      dxy     :     0.003636

  4 C s       :     2.966735  s :     2.966735
      pz      :     1.262885  p :     3.079628
      px      :     0.867112
      py      :     0.949632
      dz2     :     0.009387  d :     0.040272
      dxz     :     0.012388
      dyz     :     0.005848
      dx2y2   :     0.006504
      dxy     :     0.006145

  5 C s       :     2.784354  s :     2.784354
      pz      :     0.980108  p :     3.270622
      px      :     1.284109
      py      :     1.006405
      dz2     :     0.007752  d :     0.035980
      dxz     :     0.013310
      dyz     :     0.004617
      dx2y2   :     0.005700
      dxy     :     0.004601

  6 C s       :     3.365766  s :     3.365766
      pz      :     0.833665  p :     3.079653
      px      :     1.293817
      py      :     0.952171
      dz2     :     0.009427  d :     0.036177
      dxz     :     0.010226
      dyz     :     0.003836
      dx2y2   :     0.005878
      dxy     :     0.006810

  7 C s       :     2.580997  s :     2.580997
      pz      :     0.662611  p :     2.422680
      px      :     0.785310
      py      :     0.974758
      dz2     :     0.009352  d :     0.038831
      dxz     :     0.011744
      dyz     :     0.005708
      dx2y2   :     0.006409
      dxy     :     0.005617

  8 C s       :     4.092687  s :     4.092687
      pz      :     1.106671  p :     3.201817
      px      :     1.050551
      py      :     1.044595
      dz2     :     0.007985  d :     0.036507
      dxz     :     0.013062
      dyz     :     0.004895
      dx2y2   :     0.005676
      dxy     :     0.004889

  9 C s       :     2.870814  s :     2.870814
      pz      :     1.009426  p :     3.100950
      px      :     1.066096
      py      :     1.025429
      dz2     :     0.009931  d :     0.035827
      dxz     :     0.009627
      dyz     :     0.003843
      dx2y2   :     0.006042
      dxy     :     0.006385

 10 C s       :     3.133569  s :     3.133569
      pz      :     0.780886  p :     2.786887
      px      :     1.277857
      py      :     0.728144
      dz2     :     0.021654  d :     0.077307
      dxz     :     0.020107
      dyz     :     0.015138
      dx2y2   :     0.009901
      dxy     :     0.010507

 11 O s       :     3.947297  s :     3.947297
      pz      :     1.384910  p :     4.657937
      px      :     1.606933
      py      :     1.666093
      dz2     :     0.008978  d :     0.028424
      dxz     :     0.004506
      dyz     :     0.005876
      dx2y2   :     0.007534
      dxy     :     0.001529

 12 C s       :     1.653964  s :     1.653964
      pz      :     1.043709  p :     3.224796
      px      :     1.057395
      py      :     1.123692
      dz2     :     0.007019  d :     0.029694
      dxz     :     0.008407
      dyz     :     0.004370
      dx2y2   :     0.005519
      dxy     :     0.004379

 13 C s       :     4.345649  s :     4.345649
      pz      :     0.928528  p :     2.920207
      px      :     1.246908
      py      :     0.744771
      dz2     :     0.021307  d :     0.086728
      dxz     :     0.029129
      dyz     :     0.015440
      dx2y2   :     0.008906
      dxy     :     0.011945

 14 O s       :     3.946998  s :     3.946998
      pz      :     1.309597  p :     4.564458
      px      :     1.777009
      py      :     1.477851
      dz2     :     0.008696  d :     0.024536
      dxz     :     0.004850
      dyz     :     0.007076
      dx2y2   :     0.002625
      dxy     :     0.001290

 15 C s       :     2.292829  s :     2.292829
      pz      :     0.646023  p :     1.970862
      px      :     0.408694
      py      :     0.916146
      dz2     :     0.008649  d :     0.037701
      dxz     :     0.011264
      dyz     :     0.005465
      dx2y2   :     0.006507
      dxy     :     0.005817

 16 C s       :     3.406799  s :     3.406799
      pz      :     1.029653  p :     2.966052
      px      :     0.971029
      py      :     0.965369
      dz2     :     0.007930  d :     0.037133
      dxz     :     0.011896
      dyz     :     0.005292
      dx2y2   :     0.006628
      dxy     :     0.005388

 17 C s       :     3.819899  s :     3.819899
      pz      :     1.007626  p :     2.951413
      px      :     0.916816
      py      :     1.026971
      dz2     :     0.007612  d :     0.034025
      dxz     :     0.009276
      dyz     :     0.004728
      dx2y2   :     0.006062
      dxy     :     0.006348

 18 C s       :     3.347552  s :     3.347552
      pz      :     1.093086  p :     2.685621
      px      :     0.616356
      py      :     0.976179
      dz2     :     0.014267  d :     0.072880
      dxz     :     0.021955
      dyz     :     0.008183
      dx2y2   :     0.012895
      dxy     :     0.015580

 19 O s       :     3.858127  s :     3.858127
      pz      :     1.601954  p :     4.481191
      px      :     1.144577
      py      :     1.734660
      dz2     :     0.004339  d :     0.029659
      dxz     :     0.010581
      dyz     :     0.003718
      dx2y2   :     0.004700
      dxy     :     0.006321

 20 C s       :     3.349833  s :     3.349833
      pz      :     1.062518  p :     2.923376
      px      :     0.753250
      py      :     1.107609
      dz2     :     0.009529  d :     0.059001
      dxz     :     0.015640
      dyz     :     0.008069
      dx2y2   :     0.016219
      dxy     :     0.009544

 21 C s       :     1.832026  s :     1.832026
      pz      :     1.069494  p :     3.535607
      px      :     1.377846
      py      :     1.088266
      dz2     :     0.007879  d :     0.034335
      dxz     :     0.010146
      dyz     :     0.005029
      dx2y2   :     0.006773
      dxy     :     0.004508

 22 C s       :     4.158803  s :     4.158803
      pz      :     1.021063  p :     3.161041
      px      :     1.186112
      py      :     0.953866
      dz2     :     0.008222  d :     0.036778
      dxz     :     0.009606
      dyz     :     0.004818
      dx2y2   :     0.006420
      dxy     :     0.007712

 23 H s       :     0.789071  s :     0.789071

 24 H s       :     0.780474  s :     0.780474

 25 H s       :     0.779626  s :     0.779626

 26 H s       :     0.788499  s :     0.788499

 27 H s       :     0.791533  s :     0.791533

 28 H s       :     0.779466  s :     0.779466

 29 H s       :     0.790061  s :     0.790061

 30 H s       :     0.790867  s :     0.790867

 31 H s       :     0.779731  s :     0.779731

 32 H s       :     0.820918  s :     0.820918

 33 H s       :     0.786141  s :     0.786141

 34 H s       :     0.824249  s :     0.824249

 35 H s       :     0.826736  s :     0.826736

 36 H s       :     0.424457  s :     0.424457

 37 H s       :     0.834686  s :     0.834686

 38 H s       :     0.822992  s :     0.822992

 39 H s       :     0.808301  s :     0.808301

 40 H s       :     0.790407  s :     0.790407

 41 H s       :     0.792787  s :     0.792787

 42 H s       :     0.792761  s :     0.792761

 43 H s       :     0.820104  s :     0.820104

 44 H s       :     0.780325  s :     0.780325



                     *******************************
                     * LOEWDIN POPULATION ANALYSIS *
                     *******************************

----------------------
LOEWDIN ATOMIC CHARGES
----------------------
   0 C :   -0.497334
   1 C :   -0.255752
   2 C :   -0.481223
   3 C :   -0.481701
   4 C :   -0.113095
   5 C :   -0.194828
   6 C :   -0.139946
   7 C :   -0.093662
   8 C :   -0.161416
   9 C :   -0.197979
  10 C :    0.131431
  11 O :   -0.435206
  12 C :   -0.290030
  13 C :    0.138659
  14 O :   -0.440835
  15 C :   -0.122022
  16 C :   -0.157063
  17 C :   -0.184042
  18 C :    0.053422
  19 O :   -0.382571
  20 C :   -0.251019
  21 C :   -0.229758
  22 C :   -0.126180
  23 H :    0.201496
  24 H :    0.203717
  25 H :    0.204072
  26 H :    0.201894
  27 H :    0.198730
  28 H :    0.207703
  29 H :    0.201566
  30 H :    0.198797
  31 H :    0.207767
  32 H :    0.222026
  33 H :    0.239646
  34 H :    0.217456
  35 H :    0.220179
  36 H :    0.450692
  37 H :    0.223488
  38 H :    0.217699
  39 H :    0.228810
  40 H :    0.204160
  41 H :    0.198972
  42 H :    0.198916
  43 H :    0.221987
  44 H :    0.242377

-------------------------------
LOEWDIN REDUCED ORBITAL CHARGES
-------------------------------
  0 C s       :     2.994870  s :     2.994870
      pz      :     1.143566  p :     3.435539
      px      :     1.127707
      py      :     1.164266
      dz2     :     0.010523  d :     0.066926
      dxz     :     0.015500
      dyz     :     0.016413
      dx2y2   :     0.020814
      dxy     :     0.003677

  1 C s       :     2.873518  s :     2.873518
      pz      :     1.099370  p :     3.269944
      px      :     1.071845
      py      :     1.098729
      dz2     :     0.017303  d :     0.112290
      dxz     :     0.026405
      dyz     :     0.023955
      dx2y2   :     0.031106
      dxy     :     0.013521

  2 C s       :     2.996896  s :     2.996896
      pz      :     1.111122  p :     3.417518
      px      :     1.160797
      py      :     1.145599
      dz2     :     0.010978  d :     0.066809
      dxz     :     0.019859
      dyz     :     0.012395
      dx2y2   :     0.021031
      dxy     :     0.002547

  3 C s       :     2.996872  s :     2.996872
      pz      :     1.157577  p :     3.418032
      px      :     1.162064
      py      :     1.098390
      dz2     :     0.006600  d :     0.066798
      dxz     :     0.015619
      dyz     :     0.018640
      dx2y2   :     0.018927
      dxy     :     0.007012

  4 C s       :     2.865281  s :     2.865281
      pz      :     1.103481  p :     3.149576
      px      :     1.092576
      py      :     0.953518
      dz2     :     0.024718  d :     0.098239
      dxz     :     0.032673
      dyz     :     0.013125
      dx2y2   :     0.015134
      dxy     :     0.012588

  5 C s       :     2.890818  s :     2.890818
      pz      :     1.089521  p :     3.219456
      px      :     1.119699
      py      :     1.010236
      dz2     :     0.019735  d :     0.084554
      dxz     :     0.032167
      dyz     :     0.010034
      dx2y2   :     0.012965
      dxy     :     0.009653

  6 C s       :     2.893767  s :     2.893767
      pz      :     1.100621  p :     3.161951
      px      :     1.093233
      py      :     0.968097
      dz2     :     0.020456  d :     0.084228
      dxz     :     0.026205
      dyz     :     0.006611
      dx2y2   :     0.016161
      dxy     :     0.014796

  7 C s       :     2.840158  s :     2.840158
      pz      :     1.089646  p :     3.154565
      px      :     1.059258
      py      :     1.005661
      dz2     :     0.025306  d :     0.098939
      dxz     :     0.032628
      dyz     :     0.012967
      dx2y2   :     0.016268
      dxy     :     0.011770

  8 C s       :     2.892342  s :     2.892342
      pz      :     1.082552  p :     3.184039
      px      :     1.116218
      py      :     0.985270
      dz2     :     0.019934  d :     0.085035
      dxz     :     0.031251
      dyz     :     0.010614
      dx2y2   :     0.013089
      dxy     :     0.010147

  9 C s       :     2.890837  s :     2.890837
      pz      :     1.097081  p :     3.222719
      px      :     1.111763
      py      :     1.013875
      dz2     :     0.021790  d :     0.084422
      dxz     :     0.025390
      dyz     :     0.006698
      dx2y2   :     0.016763
      dxy     :     0.013783

 10 C s       :     2.814314  s :     2.814314
      pz      :     0.931428  p :     2.873608
      px      :     1.094285
      py      :     0.847896
      dz2     :     0.050493  d :     0.180647
      dxz     :     0.050626
      dyz     :     0.034721
      dx2y2   :     0.022362
      dxy     :     0.022447

 11 O s       :     3.531285  s :     3.531285
      pz      :     1.503014  p :     4.848251
      px      :     1.649554
      py      :     1.695683
      dz2     :     0.018641  d :     0.055670
      dxz     :     0.010411
      dyz     :     0.012438
      dx2y2   :     0.011532
      dxy     :     0.002647

 12 C s       :     2.877232  s :     2.877232
      pz      :     1.113528  p :     3.338844
      px      :     1.066190
      py      :     1.159126
      dz2     :     0.016180  d :     0.073954
      dxz     :     0.023486
      dyz     :     0.008316
      dx2y2   :     0.015645
      dxy     :     0.010328

 13 C s       :     2.813813  s :     2.813813
      pz      :     0.966964  p :     2.843776
      px      :     1.065476
      py      :     0.811336
      dz2     :     0.049339  d :     0.203751
      dxz     :     0.073034
      dyz     :     0.035426
      dx2y2   :     0.019649
      dxy     :     0.026303

 14 O s       :     3.565672  s :     3.565672
      pz      :     1.481523  p :     4.822783
      px      :     1.818094
      py      :     1.523166
      dz2     :     0.019272  d :     0.052381
      dxz     :     0.010825
      dyz     :     0.015358
      dx2y2   :     0.004344
      dxy     :     0.002582

 15 C s       :     2.846653  s :     2.846653
      pz      :     1.075810  p :     3.178414
      px      :     1.070899
      py      :     1.031705
      dz2     :     0.022529  d :     0.096955
      dxz     :     0.031049
      dyz     :     0.013323
      dx2y2   :     0.016910
      dxy     :     0.013143

 16 C s       :     2.894401  s :     2.894401
      pz      :     1.073231  p :     3.176455
      px      :     1.116266
      py      :     0.986958
      dz2     :     0.019278  d :     0.086207
      dxz     :     0.028564
      dyz     :     0.012040
      dx2y2   :     0.014659
      dxy     :     0.011667

 17 C s       :     2.893623  s :     2.893623
      pz      :     1.090156  p :     3.209518
      px      :     1.075900
      py      :     1.043462
      dz2     :     0.016728  d :     0.080901
      dxz     :     0.024729
      dyz     :     0.008347
      dx2y2   :     0.016662
      dxy     :     0.014435

 18 C s       :     2.812408  s :     2.812408
      pz      :     1.048656  p :     2.961442
      px      :     0.969381
      py      :     0.943405
      dz2     :     0.034128  d :     0.172729
      dxz     :     0.054990
      dyz     :     0.019436
      dx2y2   :     0.030388
      dxy     :     0.033787

 19 O s       :     3.481700  s :     3.481700
      pz      :     1.699370  p :     4.830006
      px      :     1.350808
      py      :     1.779828
      dz2     :     0.009461  d :     0.070865
      dxz     :     0.025162
      dyz     :     0.005424
      dx2y2   :     0.015301
      dxy     :     0.015517

 20 C s       :     2.961394  s :     2.961394
      pz      :     1.116896  p :     3.172628
      px      :     0.903125
      py      :     1.152607
      dz2     :     0.018131  d :     0.116998
      dxz     :     0.033445
      dyz     :     0.014907
      dx2y2   :     0.031203
      dxy     :     0.019312

 21 C s       :     2.889171  s :     2.889171
      pz      :     1.071845  p :     3.258997
      px      :     1.123098
      py      :     1.064054
      dz2     :     0.019791  d :     0.081590
      dxz     :     0.025123
      dyz     :     0.012067
      dx2y2   :     0.014808
      dxy     :     0.009802

 22 C s       :     2.895656  s :     2.895656
      pz      :     1.088872  p :     3.144973
      px      :     1.090716
      py      :     0.965386
      dz2     :     0.017910  d :     0.085551
      dxz     :     0.024690
      dyz     :     0.008400
      dx2y2   :     0.017268
      dxy     :     0.017283

 23 H s       :     0.798504  s :     0.798504

 24 H s       :     0.796283  s :     0.796283

 25 H s       :     0.795928  s :     0.795928

 26 H s       :     0.798106  s :     0.798106

 27 H s       :     0.801270  s :     0.801270

 28 H s       :     0.792297  s :     0.792297

 29 H s       :     0.798434  s :     0.798434

 30 H s       :     0.801203  s :     0.801203

 31 H s       :     0.792233  s :     0.792233

 32 H s       :     0.777974  s :     0.777974

 33 H s       :     0.760354  s :     0.760354

 34 H s       :     0.782544  s :     0.782544

 35 H s       :     0.779821  s :     0.779821

 36 H s       :     0.549308  s :     0.549308

 37 H s       :     0.776512  s :     0.776512

 38 H s       :     0.782301  s :     0.782301

 39 H s       :     0.771190  s :     0.771190

 40 H s       :     0.795840  s :     0.795840

 41 H s       :     0.801028  s :     0.801028

 42 H s       :     0.801084  s :     0.801084

 43 H s       :     0.778013  s :     0.778013

 44 H s       :     0.757623  s :     0.757623



                      *****************************
                      * MAYER POPULATION ANALYSIS *
                      *****************************

  NA   - Mulliken gross atomic population
  ZA   - Total nuclear charge
  QA   - Mulliken gross atomic charge
  VA   - Mayer's total valence
  BVA  - Mayer's bonded valence
  FA   - Mayer's free valence

  ATOM       NA         ZA         QA         VA         BVA        FA
  0 C      6.5092     6.0000    -0.5092     3.0743     3.0743    -0.0000
  1 C      5.4799     6.0000     0.5201     2.5464     2.5464    -0.0000
  2 C      6.6399     6.0000    -0.6399     3.4295     3.4295     0.0000
  3 C      6.6256     6.0000    -0.6256     3.3993     3.3993     0.0000
  4 C      6.0866     6.0000    -0.0866     3.4561     3.4561     0.0000
  5 C      6.0910     6.0000    -0.0910     4.1050     4.1050     0.0000
  6 C      6.4816     6.0000    -0.4816     0.0366     0.0366    -0.0000
  7 C      5.0425     6.0000     0.9575     1.5263     1.5263    -0.0000
  8 C      7.3310     6.0000    -1.3310     3.3459     3.3459     0.0000
  9 C      6.0076     6.0000    -0.0076     2.6363     2.6363    -0.0000
 10 C      5.9978     6.0000     0.0022     3.6859     3.6859     0.0000
 11 O      8.6337     8.0000    -0.6337     1.6453     1.6453     0.0000
 12 C      4.9085     6.0000     1.0915    -0.0550    -0.0550    -0.0000
 13 C      7.3526     6.0000    -1.3526     2.6516     2.6516     0.0000
 14 O      8.5360     8.0000    -0.5360     1.9527     1.9527     0.0000
 15 C      4.3014     6.0000     1.6986    -0.2066    -0.2066    -0.0000
 16 C      6.4100     6.0000    -0.4100     3.0325     3.0325    -0.0000
 17 C      6.8053     6.0000    -0.8053     3.2223     3.2223    -0.0000
 18 C      6.1061     6.0000    -0.1061     4.0547     4.0547    -0.0000
 19 O      8.3690     8.0000    -0.3690     1.6108     1.6108     0.0000
 20 C      6.3322     6.0000    -0.3322     3.5420     3.5420     0.0000
 21 C      5.4020     6.0000     0.5980     2.3200     2.3200     0.0000
 22 C      7.3566     6.0000    -1.3566     3.1318     3.1318    -0.0000
 23 H      0.7891     1.0000     0.2109     0.9072     0.9072    -0.0000
 24 H      0.7805     1.0000     0.2195     0.8997     0.8997    -0.0000
 25 H      0.7796     1.0000     0.2204     0.8995     0.8995    -0.0000
 26 H      0.7885     1.0000     0.2115     0.9037     0.9037     0.0000
 27 H      0.7915     1.0000     0.2085     0.9063     0.9063     0.0000
[...]
  0-1A  ->  4-1A    4.407809   35551.4   281.3   0.008997655   0.08332  -0.24252   0.04548  -0.14979
  0-1A  ->  5-1A    4.509209   36369.2   275.0   0.014344810   0.12985  -0.24140  -0.10708   0.24517
  0-1A  ->  6-1A    4.858623   39187.4   255.2   0.001998093   0.01679   0.10360   0.01813  -0.07566
  0-1A  ->  7-1A    4.943688   39873.5   250.8   0.059214433   0.48890  -0.11358  -0.28218   0.62958
  0-1A  ->  8-1A    5.090523   41057.8   243.6   0.019453121   0.15598   0.37776  -0.03956   0.10821
  0-1A  ->  9-1A    5.169071   41691.4   239.9   0.023706582   0.18720  -0.42454   0.03164  -0.07722
  0-1A  -> 10-1A    5.333170   43014.9   232.5   0.004657846   0.03565   0.09846   0.12632   0.09999
  0-1A  -> 11-1A    5.377253   43370.5   230.6   0.179965900   1.36607   1.08299  -0.23363   0.37230
  0-1A  -> 12-1A    5.429333   43790.5   228.4   0.029473694   0.22158  -0.24657  -0.16670   0.36468
  0-1A  -> 13-1A    5.466576   44090.9   226.8   0.000137479   0.00103   0.02472   0.00361  -0.02006
  0-1A  -> 14-1A    5.555398   44807.3   223.2   0.002506104   0.01841   0.00096  -0.12186  -0.05969
  0-1A  -> 15-1A    5.590830   45093.1   221.8   0.011988411   0.08752   0.11803  -0.11446   0.24595
  0-1A  -> 16-1A    5.735679   46261.4   216.2   0.003701161   0.02634  -0.03117   0.15018   0.05305
  0-1A  -> 17-1A    5.803090   46805.1   213.7   0.086208075   0.60636  -0.77852  -0.01040   0.01266
  0-1A  -> 18-1A    5.824647   46979.0   212.9   0.000037334   0.00026  -0.01280  -0.00940   0.00310
  0-1A  -> 19-1A    5.855704   47229.4   211.7   0.000067538   0.00047  -0.02139   0.00360   0.00064
  0-1A  -> 20-1A    6.029921   48634.6   205.6   0.000000000   0.00000   0.00000   0.00000  -0.00000
  0-1A  -> 21-1A    6.037454   48695.4   205.4   0.000937126   0.00634  -0.02728  -0.02630   0.07000
  0-1A  -> 22-1A    6.064550   48913.9   204.4   0.004486731   0.03020  -0.00066  -0.15686  -0.07477

----------------------------------------------------------------------------------------------------
                     ABSORPTION SPECTRUM VIA TRANSITION VELOCITY DIPOLE MOMENTS    
----------------------------------------------------------------------------------------------------
     Transition      Energy     Energy  Wavelength fosc(P2)      P2        PX        PY        PZ   
                      (eV)      (cm-1)    (nm)                 (au**2)    (au)      (au)      (au)  
----------------------------------------------------------------------------------------------------
  0-1A  ->  1-1A    3.723157   30029.3   333.0   0.448817153   0.09211  -0.30184  -0.00352   0.03156
  0-1A  ->  2-1A    3.823890   30841.8   324.2   0.000284543   0.00006   0.00707   0.00279   0.00148
  0-1A  ->  3-1A    4.239417   34193.2   292.5   0.034082383   0.00796   0.08883  -0.00597   0.00621
  0-1A  ->  4-1A    4.407809   35551.4   281.3   0.003118317   0.00076   0.01440   0.00669  -0.02248
  0-1A  ->  5-1A    4.509209   36369.2   275.0   0.002044685   0.00051   0.02081  -0.00438   0.00748
  0-1A  ->  6-1A    4.858623   39187.4   255.2   0.000988690   0.00026  -0.00091  -0.00851   0.01384
  0-1A  ->  7-1A    4.943688   39873.5   250.8   0.002348285   0.00064   0.02514  -0.00127   0.00254
  0-1A  ->  8-1A    5.090523   41057.8   243.6   0.000474216   0.00013   0.00248   0.00678  -0.00899
  0-1A  ->  9-1A    5.169071   41691.4   239.9   0.029602894   0.00844   0.05517   0.02654  -0.06846
  0-1A  -> 10-1A    5.333170   43014.9   232.5   0.001573599   0.00046  -0.01427  -0.01498  -0.00588
  0-1A  -> 11-1A    5.377253   43370.5   230.6   0.087924547   0.02606  -0.16120   0.00227   0.00850
  0-1A  -> 12-1A    5.429333   43790.5   228.4   0.001498954   0.00045   0.02108  -0.00141   0.00143
  0-1A  -> 13-1A    5.466576   44090.9   226.8   0.000097575   0.00003  -0.00256  -0.00463  -0.00121
  0-1A  -> 14-1A    5.555398   44807.3   223.2   0.001863384   0.00057   0.00000   0.02093   0.01152
  0-1A  -> 15-1A    5.590830   45093.1   221.8   0.000667905   0.00021  -0.01329  -0.00169   0.00514
  0-1A  -> 16-1A    5.735679   46261.4   216.2   0.001782298   0.00056   0.00361  -0.02185  -0.00854
  0-1A  -> 17-1A    5.803090   46805.1   213.7   0.033602138   0.01075   0.10042   0.00700  -0.02482
  0-1A  -> 18-1A    5.824647   46979.0   212.9   0.000025303   0.00001   0.00143   0.00242   0.00049
  0-1A  -> 19-1A    5.855704   47229.4   211.7   0.000162739   0.00005   0.00273   0.00644   0.00191
  0-1A  -> 20-1A    6.029921   48634.6   205.6   0.000000000   0.00000   0.00000   0.00000  -0.00000
  0-1A  -> 21-1A    6.037454   48695.4   205.4   0.002689163   0.00089   0.02832   0.00282  -0.00923
  0-1A  -> 22-1A    6.064550   48913.9   204.4   0.002161846   0.00072   0.00026   0.02448   0.01111

------------------------------------------------------------------------------------------
                     CD SPECTRUM VIA TRANSITION ELECTRIC DIPOLE MOMENTS    
------------------------------------------------------------------------------------------
     Transition      Energy     Energy  Wavelength    R        MX        MY        MZ   
                      (eV)      (cm-1)    (nm)   (1e40*cgs)   (au)      (au)      (au)  
------------------------------------------------------------------------------------------
  0-1A  ->  1-1A    3.723157   30029.3   333.0   -0.20101   0.01272   0.33437   0.15116
  0-1A  ->  2-1A    3.823890   30841.8   324.2    0.44488  -0.00473   0.05685  -0.16111
  0-1A  ->  3-1A    4.239417   34193.2   292.5   -0.91270  -0.00979  -0.24947  -0.11404
  0-1A  ->  4-1A    4.407809   35551.4   281.3   -0.69746  -0.00557   0.02571   0.00695
  0-1A  ->  5-1A    4.509209   36369.2   275.0   -0.04625   0.00258   0.10299   0.04793
  0-1A  ->  6-1A    4.858623   39187.4   255.2    0.08848  -0.00868  -0.00673  -0.01102
  0-1A  ->  7-1A    4.943688   39873.5   250.8   -0.68346  -0.00611  -0.13936  -0.06126
  0-1A  ->  8-1A    5.090523   41057.8   243.6   -0.13672   0.00041   0.01139   0.00542
  0-1A  ->  9-1A    5.169071   41691.4   239.9    0.56221   0.00080  -0.06253  -0.01457
  0-1A  -> 10-1A    5.333170   43014.9   232.5   -2.77781   0.07605   0.03001  -0.05387
  0-1A  -> 11-1A    5.377253   43370.5   230.6    0.16299  -0.00225   0.01497   0.01502
  0-1A  -> 12-1A    5.429333   43790.5   228.4   -2.10773  -0.00566  -0.24146  -0.10194
  0-1A  -> 13-1A    5.466576   44090.9   226.8    0.53429   0.03570  -0.02795   0.09550
  0-1A  -> 14-1A    5.555398   44807.3   223.2    0.62490  -0.01091  -0.11146   0.24955
  0-1A  -> 15-1A    5.590830   45093.1   221.8    1.14818   0.00076   0.00305  -0.00884
  0-1A  -> 16-1A    5.735679   46261.4   216.2   -0.74318  -0.01467   0.01527  -0.02213
  0-1A  -> 17-1A    5.803090   46805.1   213.7    0.19413   0.00092  -0.08223  -0.04322
  0-1A  -> 18-1A    5.824647   46979.0   212.9   -0.14915  -0.03998   0.01545  -0.01614
  0-1A  -> 19-1A    5.855704   47229.4   211.7    0.05721   0.00362  -0.02152   0.05246
  0-1A  -> 20-1A    6.029921   48634.6   205.6    0.00000  -0.00000  -0.00000   0.00000
  0-1A  -> 21-1A    6.037454   48695.4   205.4   -0.07663  -0.01704  -0.20703  -0.08211
  0-1A  -> 22-1A    6.064550   48913.9   204.4    0.09838   0.00759  -0.04279   0.09250

------------------------------------------------------------------------------------------
                     CD SPECTRUM VIA TRANSITION VELOCITY DIPOLE MOMENTS    
------------------------------------------------------------------------------------------
     Transition      Energy     Energy  Wavelength    R        MX        MY        MZ   
                      (eV)      (cm-1)    (nm)   (1e40*cgs)   (au)      (au)      (au)  
------------------------------------------------------------------------------------------
  0-1A  ->  1-1A    3.723157   30029.3   333.0   -0.84510   0.01272   0.33437   0.15116
  0-1A  ->  2-1A    3.823890   30841.8   324.2   -0.38142  -0.00473   0.05685  -0.16111
  0-1A  ->  3-1A    4.239417   34193.2   292.5   -0.26766  -0.00979  -0.24947  -0.11404
  0-1A  ->  4-1A    4.407809   35551.4   281.3   -0.18805  -0.00557   0.02571   0.00695
  0-1A  ->  5-1A    4.509209   36369.2   275.0   -0.11255   0.00258   0.10299   0.04793
  0-1A  ->  6-1A    4.858623   39187.4   255.2   -0.23081  -0.00868  -0.00673  -0.01102
  0-1A  ->  7-1A    4.943688   39873.5   250.8   -0.34373  -0.00611  -0.13936  -0.06126
  0-1A  ->  8-1A    5.090523   41057.8   243.6    0.07444   0.00041   0.01139   0.00542
  0-1A  ->  9-1A    5.169071   41691.4   239.9   -1.53367   0.00080  -0.06253  -0.01457
  0-1A  -> 10-1A    5.333170   43014.9   232.5   -2.92954   0.07605   0.03001  -0.05387
  0-1A  -> 11-1A    5.377253   43370.5   230.6    1.25207  -0.00225   0.01497   0.01502
  0-1A  -> 12-1A    5.429333   43790.5   228.4    0.17884  -0.00566  -0.24146  -0.10194
  0-1A  -> 13-1A    5.466576   44090.9   226.8   -0.18176   0.03570  -0.02795   0.09550
  0-1A  -> 14-1A    5.555398   44807.3   223.2    1.24901  -0.01091  -0.11146   0.24955
  0-1A  -> 15-1A    5.590830   45093.1   221.8   -0.13917   0.00076   0.00305  -0.00884
  0-1A  -> 16-1A    5.735679   46261.4   216.2   -0.44211  -0.01467   0.01527  -0.02213
  0-1A  -> 17-1A    5.803090   46805.1   213.7    1.30509   0.00092  -0.08223  -0.04322
  0-1A  -> 18-1A    5.824647   46979.0   212.9   -0.06072  -0.03998   0.01545  -0.01614
  0-1A  -> 19-1A    5.855704   47229.4   211.7   -0.06279   0.00362  -0.02152   0.05246
  0-1A  -> 20-1A    6.029921   48634.6   205.6   -0.00000  -0.00000  -0.00000   0.00000
  0-1A  -> 21-1A    6.037454   48695.4   205.4   -0.65468  -0.01704  -0.20703  -0.08211
  0-1A  -> 22-1A    6.064550   48913.9   204.4   -0.03681   0.00759  -0.04279   0.09250

Total run time:      540.028 sec

           *** ORCA-CIS/TD-DFT FINISHED WITHOUT ERROR ***
-----------------------
CIS/TD-DFT TOTAL ENERGY
-----------------------

    E(SCF)  =  -1000.463645835 Eh
    DE(CIS) =      0.136823499 Eh (Root  1)
    ----------------------------- ---------
    E(tot)  =  -1000.326822336 Eh


Maximum memory used throughout the entire CIS-calculation: 903.9 MB
=> NOW LEAVING ORCA_CIS

-------------------------   --------------------
FINAL SINGLE POINT ENERGY     -1000.326822336163
-------------------------   --------------------



           ************************************************************
           *        Program running with 4 parallel MPI-processes     *
           *              working on a common directory               *
           ************************************************************

------------------------------------------------------------------------------
                              ORCA PROPERTY CALCULATIONS
------------------------------------------------------------------------------

GBWName                                 ... td.gbw
Number of atoms                         ...     45
Number of basis functions               ...    458
Max core memory                         ...   2500 MB

Electric properties:
Dipole moment                           ... YES
Quadrupole moment                       ...  NO
Static polarizability (Dipole/Dipole)   ...  NO
Static polarizability (Dipole/Quad.)    ...  NO
Static polarizability (Quad./Quad.)     ...  NO
Static polarizability (Velocity)        ...  NO
Static hyperpolarizability              ...  NO

Atomic electric properties:
Dipole moment                           ...  NO
Quadrupole moment                       ...  NO
Static polarizability                   ...  NO

Choice of electric origin               ... Center of mass
Position of electric origin             ...     1.210340     0.162023    -0.498887

General magnetic properties:
Magnetizability                         ...  NO

EPR properties:
g-Tensor (aka g-matrix)                 ...  NO
Zero-Field splitting spin-orbit         ...  NO
Zero-field splitting spin-spin          ...  NO
Hyperfine couplings                     ...  NO (   0 nuclei)
Quadrupole couplings                    ...  NO (   0 nuclei)
Contact density                         ...  NO (   0 nuclei)

NMR properties:
Chemical shifts                         ...  NO (   0 nuclei)
Spin-rotation constants                 ...  NO (   0 nuclei)
Spin-spin couplings                     ...  NO (   0 nuclei,    0 pairs)

Choice of magnetic origin               ... GIAO
Position of magnetic origin             ...     0.000000     0.000000     0.000000

Properties with geometric perturbations:
SCF Hessian                             ...  NO
IR spectrum                             ...  NO
VCD spectrum                            ...  NO
X-ray spectroscopy properties:
SCF XES/XAS/RIXS spectra                ...  NO

SCF SOC stabilization energy            ...  NO
Diagonal Born-Oppenheimer correction    ...  NO

-------------
DIPOLE MOMENT
-------------

Method             : SCF
Type of density    : Electron Density
Multiplicity       :   1
Irrep              :   0
Energy             : -1000.4636458347216603 Eh
Basis              : AO
                                X                 Y                 Z
Electronic contribution:     26.835315307       3.814810682      -9.949103867
Nuclear contribution   :    -26.622495753      -4.331659261      11.023216910
                        -----------------------------------------
Total Dipole Moment    :      0.212819554      -0.516848580       1.074113043
                        -----------------------------------------
Magnitude (a.u.)       :      1.210844105
Magnitude (Debye)      :      3.077721124



--------------------
Rotational spectrum 
--------------------
 
Rotational constants in cm-1:             0.024910             0.002523             0.002328 
Rotational constants in MHz :           746.791397            75.639829            69.799933 

Dipole components along the rotational axes: 
x,y,z [a.u.] :     0.189795    -1.195725    -0.019072 
x,y,z [Debye]:     0.482419    -3.039291    -0.048478 

 

Dipole moment calculation done in   0.1 sec 

Maximum memory used throughout the entire PROP-calculation: 31.0 MB

--------------------------------
SUGGESTED CITATIONS FOR THIS RUN
--------------------------------

Below you find a list of papers that are relevant to this ORCA run
We neither can nor want to force you to cite these papers, but we appreciate if you do
You receive ORCA, which is the product of decades of hard work by many enthusiastic individuals, for free
The only thing we kindly ask in return is that you cite our papers,
We deeply appreciate it, if you show your appreciation for ORCA by not just citing the generic ORCA reference.

Please note that relegating all ORCA citations to the supporting information does *not* help us.
SI sections are not indexed - citations you put there will not count into any citation statistics
But we need these citations in order to attract the funding resources that allow us to do what we are doing

Therefore, if you are a happy ORCA user, please consider citing a few of the papers listed below in the main body of your paper

In addition to the list printed below, the program has created the file td.bibtex that contains the list in bibtex format
You can import this file easily into all common literature databanks and citation aid programs

It goes without saying that in many instances, there are alternative algorithms to achieve similar
results as the ones you have gotten from ORCA. It is, of course, also the case that in some instances
ORCA just re-implements algorithms worked out by others. We are fully aware of that and we are also
fully appreciative of our colleagues work. Hence this citation list should not be read as indicating
that the listed papers, which are focused on our own work, are the only ones worth citing. It simply
meant to make it easier for users to cite ORCA specific papers. It is not a substitute for doing your
own literature research and citing the relevant literature in a scientifically appropriate manner.

List of essential papers. We consider these as the minimum necessary citations

  1. Neese, F.
     Software update: the ORCA program system, version 6.0
     WIRES Comput. Molec. Sci. 2025 15(1), e70019
     doi.org/10.1002/wcms.70019

List of papers to cite with high priority. The work reported in these papers was absolutely
necessary for this run to complete.
Our perspective: the developers of density functionals and basis sets usually get cited in chemistry papers
Good! But without the algorithms to do something with them, the functionals or basis sets would not do anything.
Hence, in our opinion, the algorithm design and method developments papers are equally worthy of getting cited

  1. Neese, F.; Olbrich, G.
     Efficient use of the resolution of the identity approximation in time-dependent density functional calculations with hybrid density functionals
     Chem. Phys. Lett. 2002 362 , 170-178
     doi.org/10.1016/s0009-2614(02)01053-9
  2. Neese, F.
     An improvement of the resolution of the identity approximation for the formation of the Coulomb matrix
     J. Comp. Chem. 2003 24(14), 1740-1747
     doi.org/10.1002/jcc.10318
  3. Neese, F.; Wennmohs, F.; Hansen, A.; Becker, U.
     Efficient, approximate and parallel Hartree-Fock and hybrid DFT calculations. A 'chain-of-spheres' algorithm for the Hartree-Fock exchange
     Chem. Phys. 2009 356(1-3), 98-109
     doi.org/10.1016/j.chemphys.2008.10.036
  4. Helmich-Paris, B.; de Souza, B.; Neese, F.; Izsák, R.
     An improved chain of spheres for exchange algorithm
     J. Chem. Phys. 2021 155(10), 104109
     doi.org/10.1063/5.0058766
  5. Neese, F.
     The SHARK Integral Generation and Digestion System
     J. Comp. Chem. 2022 44(3), 381
     doi.org/10.1002/jcc.26942

List of suggested additional citations. These are papers that are important in the 'surrounding' of 
of this run, or papers that preceded the highly important papers. If you like your results we are grateful for a citation.

  1. Izsak, R.; Neese, F.
     An overlap fitted chain of spheres exchange method
     J. Chem. Phys. 2011 135 , 144105
     doi.org/10.1063/1.3646921
  2. Izsak, R.; Hansen, A.; Neese, F.
     The resolution of identity and chain of spheres approximations for the LPNO-CCSD singles Fock term
     Molec. Phys. 2012 110 , 2413-2417
     doi.org/10.1080/00268976.2012.687466
  3. Neese, F.
     The ORCA program system
     WIRES Comput. Molec. Sci. 2012 2(1), 73-78
     doi.org/10.1002/wcms.81
  4. Izsak, R.; Neese, F.; Klopper, W.
     Robust fitting techniques in the chain of spheres approximation to the Fock exchange: The role of the complementary space
     J. Chem. Phys. 2013 139 , 
     doi.org/10.1063/1.4819264
  5. Neese, F.
     Software update: the ORCA program system, version 4.0
     WIRES Comput. Molec. Sci. 2018 8(1), 1-6
     doi.org/10.1002/wcms.1327
  6. Neese, F.; Wennmohs, F.; Becker, U.; Riplinger, C.
     The ORCA quantum chemistry program package
     J. Chem. Phys. 2020 152(22), 224108
     doi.org/10.1063/5.0004608
  7. Neese, F.
     Software update: The ORCA program system—Version 5.0
     WIRES Comput. Molec. Sci. 2022 12(1), e1606
     doi.org/10.1002/wcms.1606

List of optional additional citations

  1. Neese, F.
     Approximate second-order SCF convergence for spin unrestricted wavefunctions
     Chem. Phys. Lett. 2000 325(1-3), 93-98
     doi.org/10.1016/s0009-2614(00)00662-x

Timings for individual modules:

Sum of individual times          ...      915.918 sec (=  15.265 min)
Startup calculation              ...        7.880 sec (=   0.131 min)   0.9 %
SCF iterations                   ...      366.244 sec (=   6.104 min)  40.0 %
Property integrals               ...        0.740 sec (=   0.012 min)   0.1 %
Property calculations            ...        0.600 sec (=   0.010 min)   0.1 %
CIS module                       ...      540.454 sec (=   9.008 min)  59.0 %
                             ****ORCA TERMINATED NORMALLY****
TOTAL RUN TIME: 0 days 0 hours 15 minutes 16 seconds 975 msec
