
                                 *****************
                                 * O   R   C   A *
                                 *****************

                                            #,                                       
                                            ###                                      
                                            ####                                     
                                            #####                                    
                                            ######                                   
                                           ########,                                 
                                     ,,################,,,,,                         
                               ,,#################################,,                 
                          ,,##########################################,,             
                       ,#########################################, ''#####,          
                    ,#############################################,,   '####,        
                  ,##################################################,,,,####,       
                ,###########''''           ''''###############################       
              ,#####''   ,,,,##########,,,,          '''####'''          '####       
            ,##' ,,,,###########################,,,                        '##       
           ' ,,###''''                  '''############,,,                           
         ,,##''                                '''############,,,,        ,,,,,,###''
      ,#''                                            '''#######################'''  
     '                                                          ''''####''''         
             ,#######,   #######,   ,#######,      ##                                
            ,#'     '#,  ##    ##  ,#'     '#,    #''#        ,####,    ,#,          
            ##       ##  ##   ,#'  ##            #'  '#       #'       ,# #          
            ##       ##  #######   ##           ,######,      #####,      #          
            '#,     ,#'  ##    ##  '#,     ,#' ,#      #,     #,   #      #          
             '#######'   ##     ##  '#######'  #'      '#     '####' #    #          



                #########################################################
                #                        -***-                          #
                #          Department of theory and spectroscopy        #
                #                                                       #
                #                      Frank Neese                      #
                #                                                       #
                #     Directorship, Architecture, Infrastructure        #
                #                    SHARK, DRIVERS                     #
                #        Core code/Algorithms in most modules           #
                #                                                       #
                #        Max Planck Institute fuer Kohlenforschung      #
                #                Kaiser Wilhelm Platz 1                 #
                #                 D-45470 Muelheim/Ruhr                 #
                #                      Germany                          #
                #                                                       #
                #                  All rights reserved                  #
                #                        -***-                          #
                #########################################################


                         Program Version 6.1.1  -  RELEASE   -


 With contributions from (in alphabetic order):
[Max-Planck-Institut fuer Kohlenforschung]                               
  Daniel Aravena         : Magnetic Suceptibility                        
  Michael Atanasov       : Ab Initio Ligand Field Theory (pilot matlab implementation)
  Alexander A. Auer      : GIAO ZORA, VPT2 properties, NMR spectrum      
  Ute Becker             : All parallelization in ORCA, NUMFREQ, NUMCALC 
  Giovanni Bistoni       : ED, misc. LED, open-shell LED, HFLD           
  Dmytro Bykov           : pre 5.0 version of the SCF Hessian            
  Marcos Casanova-Páez   : Triplet and SCS-CIS(D). UHF-(DLPNO)-IP/EA/STEOM-CCSD. UHF-CVS-IP/STEOM-CCSD   
  Vijay G. Chilkuri      : MRCI spin determinant printing, contributions to CSF-ICE 
  Pauline Colinet        : FMM embedding                                 
  Dipayan Datta          : RHF DLPNO-CCSD density                        
  Achintya Kumar Dutta   : EOM-CC, STEOM-CC                              
  Nicolas Foglia         : Exact transition moments, OPA infrastructure, MCD improvements    
  Dmitry Ganyushin       : Spin-Orbit,Spin-Spin,Magnetic field MRCI      
  Miquel Garcia-Rates    : C-PCM and meta-GGA Hessian, CCSD/C-PCM, Gaussian charge scheme 
  Tiago L. C. Gouveia    : GS-ROHF, GS-ROCIS                             
  Yang Guo               : DLPNO-NEVPT2, F12-NEVPT2, CIM, IAO-localization        
  Andreas Hansen         : Spin unrestricted coupled pair/coupled cluster methods 
  Ingolf Harden          : AUTO-CI MPn and infrastructure                
  Benjamin Helmich-Paris : MC-RPA, TRAH-(SCF,CASSCF), AVAS, COSX integrals, SCF dyn. polar., MC-PDFT, srDFT 
  Lee Huntington         : MR-EOM, pCC                                   
  Robert Izsak           : Overlap fitted RIJCOSX, COSX-SCS-MP3, EOM     
  Riya Kayal             : Wick's Theorem for AUTO-CI, AUTO-CI UHF-CCSDT 
  Emily Kempfer          : AUTO-CI RHF CISDT and CCSDT, approximate NEVPT4
  Christian Kollmar      : KDIIS, OOCD, Brueckner-CCSD(T), CCSD density, CASPT2, CASPT2-K, improved NEVPT2 
  Axel Koslowski         : Symmetry handling                             
  Simone Kossmann        : meta-GGA functionals, TD-DFT gradient, OOMP2, (MP2 Hessian; deprecated post 5.0) 
  Lucas Lang             : DCDCAS, Hyperfine gauge corrections, ICE-SOC+SSC
  Marvin Lechner         : AUTO-CI (C++ implementation), FIC-MRCC        
  Spencer Leger          : CASSCF response                               
  Dagmar Lenk            : GEPOL surface, SMD, ORCA-2-JSON               
  Dimitrios Liakos       : Extrapolation schemes; Compound Job, Property file
  Dimitrios Manganas     : Further ROCIS development; embedding schemes. LFT, Crystal Embedding 
  Dimitrios Pantazis     : SARC Basis sets                               
  Anastasios Papadopoulos: AUTO-CI, single reference methods and gradients 
  Taras Petrenko         : pre 6.0 DFT Hessian and TD-DFT gradient,  ECA, NRVS 
  Petra Pikulova         : Analytic Raman intensities                    
  Peter Pinski           : DLPNO-MP2, DLPNO-MP2 Gradient                 
  Shashank Vittal Rao    : ES-AILFT, MagRelax                            
  Christoph Reimann      : Effective Core Potentials                     
  Marius Retegan         : Local ZFS, SOC                                
  Christoph Riplinger    : Optimizer, TS searches, QM/MM, DLPNO-CCSD(T), (RO)-DLPNO pert. Triples 
  Michael Roemelt        : Original ROCIS implementation, recursive CI coupling coefficients
  Masaaki Saitow         : Open-shell DLPNO-CCSD energy and density      
  Barbara Sandhoefer     : DKH picture change effects                    
  Yorick L. A. Schmerwitz: GMF and freeze-and-release deltaSCF, NEB S-IDPP initial path                    
  Kantharuban Sivalingam : CASSCF convergence/infrastructure, NEVPT2, NEVPT3, NEVPT4(SD), FIC-MRCI and CEPA variants
  Bernardo de Souza      : ESD, SOC TD-DFT                               
  Georgi L. Stoychev     : AutoAux, RI-MP2 NMR, DLPNO-MP2 response, X2C  
  Van Anh Tran           : RI-MP2 g-tensors                              
  Willem Van den Heuvel  : Paramagnetic NMR                              
  Zikuan Wang            : NOTCH, Electric field optimization            
  Frank Wennmohs         : Technical directorship and infrastructure     
  Hang Xu                : AUTO-CI-Response properties                   
                                                                         
[FACCTs GmbH]                                                            
  Markus Bursch, Nicolas Foglia, Miquel Garcia-Rates, Ingolf Harden, Hagen Neugebauer, Anastasios Papadopoulos, 
  Christoph Riplinger, Bernardo de Souza, Georgi L. Stoychev                                                    
                                                                 
  APM, various basis sets, CI-OPT, improved COSX, DLPNO-Multilevel,           
  DOCKER, DRACO, updates on ESD, Fragmentator, GOAT, IRC, LR-CPCM, L-BFGS, MBIS, meta-GGA TD-DFT gradient, ML-optimized integration grids, 
  MM, NACMEs, nearIR, NEB, NEB-TS, NL-DFT gradient (VV10), 2- and 3-layer-ONIOM, interface openCOSMO-RS, QMMM,   
  Crystal-QMMM, RESP, rigid body optimization, SF, symmetry and pop. for TD-DFT, various functionals, SOLVATOR                                   
                                                                         
[Other institutions]                                                     
  V. Asgeirsson          : NEB                                           
  Christoph Bannwarth    : sTDA-DFT, sTD-DFT, PBEh-3c, B97-3c, D3        
  Giovanni Bistoni       : ETS/NOCV, ADLD/ADEX, COVALED                  
  Martin Brehm           : Molecular dynamics                            
  Ronald Cardenas        : ETS/NOCV                                      
  Martina Colucci        : COVALED                                       
  Sebastian Ehlert       : rSCAN, r2SCAN, r2SCAN-3c, D4, dhf basis sets  
  Marvin Friede          : D4 for Fr, Ra, Ac-Lr                          
  Lars Goerigk           : TD-DFT with DH, B97 family of functionals     
  Stefan Grimme          : VdW corrections, initial TS optimization, DFT functionals, gCP, sTDA/sTD-DF 
  Waldemar Hujo          : DFT-NL                                        
  H. Jonsson             : NEB                                           
  Holger Kruse           : gCP                                           
  Marcel Mueller         : wB97X-3c, vDZP basis set                      
  Hagen Neugebauer       : wr2SCAN, Native XTB                           
  Gianluca Regni         : ADLD/ADEX                                     
  Tobias Risthaus        : pre 6.0 range-separated hybrid DFT and stability analysis
  Lukas Wittmann         : regularized MP2, r2SCAN double-hybrids, wr2SCAN        
                                                                         
We gratefully acknowledge several colleagues who have allowed us to      
interface, adapt or use parts of their codes:                            
  Ed Valeev, F. Pavosevic, A. Kumar             : LibInt (2-el integral package), F12 methods 
  Garnet Chan, S. Sharma, J. Yang, R. Olivares  : DMRG                   
  Ulf Ekstrom                                   : XCFun DFT Library      
  Mihaly Kallay                                 : mrcc  (arbitrary order and MRCC methods)
  Frank Weinhold                                : gennbo (NPA and NBO analysis)           
  Simon Mueller                                 : openCOSMO-RS                            
  Christopher J. Cramer and Donald G. Truhlar   : smd solvation model                     
  S Lehtola, MJT Oliveira, MAL Marques          : LibXC Library                           
  Liviu Ungur et al                             : ANISO software                          


 Your calculation uses the libint2 library for the computation of 2-el integrals
 For citations please refer to: http://libint.valeyev.net

 Your ORCA version has been built with support for libXC version: 7.0.0
 For citations please refer to: https://libxc.gitlab.io

 This ORCA versions uses:
   CBLAS   interface :  Fast vector & matrix operations
   LAPACKE interface :  Fast linear algebra routines
   Shared memory     :  Shared parallel matrices


  ***********************************
  * Starting time: Tue Jul 21 16:19:15 2026
  * Host name:     DESKTOP-19Q153E
  * Process ID:    23784
  * Working dir.:  C:\Users\ysm04\Documents\etc\uv_vis\calculations\01_dft_opt\diketo\diketo_c012
  ***********************************

NOTE: MaxCore=2500 MB was set to SCF,MP2,MDCI,CIPSI,MRCI,RASCI and CIS
      => If you want to overwrite this, your respective input block should be placed after the MaxCore statement
================================================================================

----- Orbital basis set information -----
Your calculation utilizes the basis: def2-SVP
   F. Weigend and R. Ahlrichs, Phys. Chem. Chem. Phys. 7, 3297 (2005).

----- AuxJ basis set information -----
Your calculation utilizes the auxiliary basis: def2/J
   H-Rn: F. Weigend, Phys. Chem. Chem. Phys. 8, 1057 (2006).
   Fr-Lr: K. Eichkorn, F. Weigend, O. Treutler, R. Ahlrichs; Theor. Chem. Acc. 97, 119 (1997).

================================================================================
                                        WARNINGS
                       Please study these warnings very carefully!
================================================================================


WARNING: Geometry Optimization
  ===> : Switching off AutoStart
         For restart on a previous wavefunction, please use MOREAD

================================================================================
                                       INPUT FILE
================================================================================
NAME = opt.inp
|  1> # geometry optimization: diketo / diketo_c012
|  2> ! B3LYP def2-SVP RIJCOSX def2/J TightSCF Opt CPCM(Ethanol)
|  3> %pal nprocs 4 end
|  4> %maxcore 2500
|  5> %scf
|  6>   MaxIter 300
|  7> end
|  8> * xyz 0 1
|  9> C     -4.9768236853    -0.2275317991    -1.8751020291
| 10> C     -4.9564652535     0.3840224856    -0.4709620917
| 11> C     -5.3392569274     1.8674297633    -0.5874647772
| 12> C     -5.9918233234    -0.3549541528     0.3910047301
| 13> C     -3.5964931816     0.2776794122     0.1976873711
| 14> C     -3.4182593558     0.7992010953     1.4802577421
| 15> C     -2.2032282883     0.7201393718     2.1218727897
| 16> C     -1.1043305049     0.1061684787     1.5121657989
| 17> C     -1.2753203050    -0.4159367535     0.2310613240
| 18> C     -2.4975101160    -0.3249235136    -0.4083238835
| 19> C      0.1622063976     0.0565798766     2.2578787940
| 20> O      0.2821043545     0.5653264018     3.3614271149
| 21> C      1.3496169658    -0.6448366431     1.6277398586
| 22> C      1.9954020312     0.2091822624     0.5411906909
| 23> O      1.4204097674     1.1625214485     0.0460649366
| 24> C      3.3548173512    -0.1768403485     0.1306286968
| 25> C      4.0662266759     0.7054673728    -0.6867420049
| 26> C      5.3480967352     0.4266582342    -1.1104032381
| 27> C      5.9565893847    -0.7700967250    -0.7301467437
| 28> O      7.2026193838    -1.1528740305    -1.0774347687
| 29> C      7.9946571865    -0.2933555395    -1.8773010719
| 30> C      5.2444380534    -1.6689340542     0.0752613746
| 31> C      3.9709081523    -1.3783391950     0.5013208756
| 32> H     -4.7398881256    -1.2883599500    -1.8440501840
| 33> H     -5.9721371821    -0.1183371869    -2.3003465871
| 34> H     -4.2738009047     0.2789363842    -2.5322500782
| 35> H     -5.4159965341     2.3366842348     0.3891906496
| 36> H     -4.5903561303     2.4044884124    -1.1659922195
| 37> H     -6.2995742925     1.9643987126    -1.0887119803
| 38> H     -5.7136433332    -1.4012436848     0.4990119054
| 39> H     -6.9705819460    -0.3035615878    -0.0802973529
| 40> H     -6.0674517310     0.0821393373     1.3824810170
| 41> H     -4.2397802594     1.2784476921     1.9898151534
| 42> H     -2.0741028794     1.1301127963     3.1132185825
| 43> H     -0.4541429229    -0.8834849217    -0.2889178155
| 44> H     -2.5810401010    -0.7376688115    -1.4000006069
| 45> H      1.0468316437    -1.5966004080     1.1904828160
| 46> H      2.0850561308    -0.8229650159     2.4141565852
| 47> H      3.5870970708     1.6290052743    -0.9771590164
| 48> H      5.8636426133     1.1399123512    -1.7324726375
| 49> H      8.9447921492    -0.8095007911    -1.9996697583
| 50> H      7.5369935474    -0.1311533990    -2.8566268382
| 51> H      8.1601067360     0.6666028171    -1.3813848150
| 52> H      5.7270134228    -2.5927795617     0.3523195468
| 53> H      3.4523815399    -2.0968261524     1.1147705744
| 54> *
| 55> 
| 56>                          ****END OF INPUT****
================================================================================

                       *****************************
                       * Geometry Optimization Run *
                       *****************************

Geometry optimization settings:
Update method            Update   .... BFGS
Choice of coordinates    CoordSys .... (2022) Redundant Internals
Initial Hessian          InHess   .... Almloef's Model
Max. no of cycles        MaxIter  .... 135

Convergence Tolerances:
Energy Change            TolE     ....  5.0000e-06 Eh
Max. Gradient            TolMAXG  ....  3.0000e-04 Eh/bohr
RMS Gradient             TolRMSG  ....  1.0000e-04 Eh/bohr
Max. Displacement        TolMAXD  ....  4.0000e-03 bohr
RMS Displacement         TolRMSD  ....  2.0000e-03 bohr
Strict Convergence                .... False

------------------------------------------------------------------------------
                        ORCA OPTIMIZATION COORDINATE SETUP
------------------------------------------------------------------------------

The optimization will be done in redundant internal coordinates (2022)
Making redundant internal coordinates   ...  (2022 redundants) done
Evaluating the initial hessian          ...  (Almloef) done
Evaluating the coordinates              ...  done
Calculating the B-matrix                .... done
Calculating the G-matrix                .... done
The number of degrees of freedom        ....  219

    -----------------------------------------------------------------
                    Redundant Internal Coordinates


    -----------------------------------------------------------------
         Definition                    Initial Value    Approx d2E/dq
    -----------------------------------------------------------------
      1. B(C   1,C   0)                  1.5317         0.371286   
      2. B(C   2,C   1)                  1.5364         0.364861   
      3. B(C   3,C   1)                  1.5366         0.364670   
      4. B(C   4,C   1)                  1.5192         0.388715   
      5. B(C   5,C   4)                  1.3960         0.611237   
      6. B(C   6,C   5)                  1.3763         0.657029   
      7. B(C   7,C   6)                  1.3987         0.605209   
      8. B(C   8,C   7)                  1.3939         0.615825   
      9. B(C   9,C   8)                  1.3823         0.642644   
     10. B(C   9,C   4)                  1.3922         0.619830   
     11. B(C  10,C   7)                  1.4706         0.464673   
     12. B(O  11,C  10)                  1.2211         1.040852   
     13. B(C  12,C  10)                  1.5162         0.392934   
     14. B(C  13,C  12)                  1.5254         0.379882   
     15. B(O  14,C  13)                  1.2185         1.050926   
     16. B(C  15,C  13)                  1.4716         0.462981   
     17. B(C  16,C  15)                  1.3974         0.608090   
     18. B(C  17,C  16)                  1.3786         0.651626   
     19. B(C  18,C  17)                  1.3954         0.612573   
     20. B(O  19,C  18)                  1.3490         0.650635   
     21. B(C  20,O  19)                  1.4163         0.508076   
     22. B(C  21,C  18)                  1.4013         0.599306   
     23. B(C  22,C  21)                  1.3740         0.662644   
     24. B(C  22,C  15)                  1.4002         0.601802   
     25. B(H  23,C   0)                  1.0874         0.363543   
     26. B(H  24,C   0)                  1.0878         0.362963   
     27. B(H  25,C   0)                  1.0875         0.363460   
     28. B(H  26,C   2)                  1.0863         0.365092   
     29. B(H  27,C   2)                  1.0881         0.362612   
     30. B(H  28,C   2)                  1.0876         0.363297   
     31. B(H  29,C   3)                  1.0880         0.362739   
     32. B(H  30,C   3)                  1.0875         0.363374   
     33. B(H  31,C   3)                  1.0862         0.365184   
     34. B(H  32,C   5)                  1.0790         0.374961   
     35. B(H  33,C   6)                  1.0805         0.372865   
     36. B(H  34,C   8)                  1.0786         0.375543   
     37. B(H  35,C   9)                  1.0774         0.377181   
     38. B(H  36,C  12)                  1.0903         0.359720   
     39. B(H  37,C  12)                  1.0914         0.358314   
     40. B(H  38,C  16)                  1.0802         0.373302   
     41. B(H  39,C  17)                  1.0777         0.376711   
     42. B(H  40,C  20)                  1.0882         0.362515   
     43. B(H  41,C  20)                  1.0931         0.356036   
     44. B(H  42,C  20)                  1.0931         0.356047   
     45. B(H  43,C  21)                  1.0785         0.375659   
     46. B(H  44,C  22)                  1.0777         0.376760   
     47. A(H  23,C   0,H  24)          107.9654         0.291638   
     48. A(C   1,C   0,H  25)          111.0651         0.324486   
     49. A(H  23,C   0,H  25)          109.3138         0.291700   
     50. A(H  24,C   0,H  25)          107.9699         0.291627   
     51. A(C   1,C   0,H  23)          111.1271         0.324498   
     52. A(C   1,C   0,H  24)          109.2955         0.324413   
     53. A(C   0,C   1,C   4)          112.7952         0.365445   
     54. A(C   2,C   1,C   4)          108.9046         0.364355   
     55. A(C   2,C   1,C   3)          109.8155         0.360404   
     56. A(C   3,C   1,C   4)          108.8219         0.364322   
     57. A(C   0,C   1,C   3)          108.2572         0.361478   
     58. A(C   0,C   1,C   2)          108.2202         0.361511   
     59. A(H  26,C   2,H  27)          108.2667         0.291788   
     60. A(C   1,C   2,H  27)          110.2050         0.323434   
     61. A(C   1,C   2,H  28)          109.9389         0.323534   
     62. A(C   1,C   2,H  26)          111.5006         0.323796   
     63. A(H  27,C   2,H  28)          108.5825         0.291562   
     64. A(H  26,C   2,H  28)          108.2692         0.291875   
     65. A(H  29,C   3,H  30)          108.5763         0.291588   
     66. A(C   1,C   3,H  30)          109.9125         0.323517   
     67. A(C   1,C   3,H  29)          110.2363         0.323424   
     68. A(H  29,C   3,H  31)          108.3106         0.291816   
     69. A(C   1,C   3,H  31)          111.4348         0.323781   
     70. A(H  30,C   3,H  31)          108.2945         0.291896   
     71. A(C   5,C   4,C   9)          117.4425         0.432935   
     72. A(C   1,C   4,C   5)          119.5068         0.398464   
     73. A(C   1,C   4,C   9)          123.0506         0.399444   
     74. A(C   4,C   5,H  32)          120.1731         0.354479   
     75. A(C   6,C   5,H  32)          118.5233         0.358856   
     76. A(C   4,C   5,C   6)          121.3034         0.437502   
     77. A(C   5,C   6,H  33)          120.7583         0.358513   
     78. A(C   7,C   6,H  33)          118.2037         0.353548   
     79. A(C   5,C   6,C   7)          121.0379         0.436721   
     80. A(C   6,C   7,C   8)          117.9483         0.431661   
     81. A(C   8,C   7,C  10)          123.9902         0.411768   
     82. A(C   6,C   7,C  10)          118.0608         0.410500   
     83. A(C   7,C   8,H  34)          120.8004         0.355022   
     84. A(C   7,C   8,C   9)          120.5903         0.436347   
     85. A(C   9,C   8,H  34)          118.6008         0.357601   
     86. A(C   8,C   9,H  35)          117.9739         0.357866   
     87. A(C   4,C   9,H  35)          120.3508         0.355675   
     88. A(C   4,C   9,C   8)          121.6753         0.436857   
     89. A(O  11,C  10,C  12)          119.4349         0.436063   
     90. A(C   7,C  10,C  12)          118.6409         0.380557   
     91. A(C   7,C  10,O  11)          121.9239         0.449489   
     92. A(C  13,C  12,H  36)          108.7008         0.325156   
     93. A(C  10,C  12,H  36)          110.6718         0.326968   
     94. A(H  36,C  12,H  37)          109.4907         0.290564   
     95. A(C  10,C  12,C  13)          111.6270         0.367560   
     96. A(C  13,C  12,H  37)          108.6242         0.324947   
     97. A(C  10,C  12,H  37)          107.6839         0.326758   
     98. A(O  14,C  13,C  15)          121.8571         0.449977   
     99. A(C  12,C  13,C  15)          116.2913         0.378097   
    100. A(C  12,C  13,O  14)          121.8503         0.434171   
    101. A(C  13,C  15,C  22)          123.8961         0.409825   
    102. A(C  13,C  15,C  16)          117.8954         0.410580   
    103. A(C  16,C  15,C  22)          118.2063         0.430246   
    104. A(C  15,C  16,C  17)          121.6992         0.436445   
    105. A(C  17,C  16,H  38)          120.1813         0.358081   
    106. A(C  15,C  16,H  38)          118.1172         0.353903   
    107. A(C  16,C  17,C  18)          119.6831         0.437023   
    108. A(C  18,C  17,H  39)          121.0845         0.354890   
    109. A(C  16,C  17,H  39)          119.2324         0.358636   
    110. A(O  19,C  18,C  21)          115.8091         0.432335   
    111. A(C  17,C  18,C  21)          119.0206         0.430492   
    112. A(C  17,C  18,O  19)          125.1702         0.434040   
    113. A(C  18,O  19,C  20)          119.3241         0.417017   
    114. A(H  40,C  20,H  42)          109.5976         0.290628   
    115. A(O  19,C  20,H  42)          111.1857         0.338565   
    116. A(H  40,C  20,H  41)          109.5852         0.290626   
    117. A(O  19,C  20,H  41)          111.2165         0.338563   
    118. A(O  19,C  20,H  40)          105.3042         0.339584   
    119. A(H  41,C  20,H  42)          109.8479         0.289806   
    120. A(C  22,C  21,H  43)          121.0811         0.359490   
    121. A(C  18,C  21,H  43)          118.0147         0.353408   
    122. A(C  18,C  21,C  22)          120.9040         0.436619   
    123. A(C  21,C  22,H  44)          118.7818         0.359669   
    124. A(C  15,C  22,H  44)          120.7353         0.353832   
    125. A(C  15,C  22,C  21)          120.4787         0.436946   
    126. D(C   2,C   1,C   0,H  24)    -59.2910         0.011015   
    127. D(C   3,C   1,C   0,H  24)     59.6819         0.011015   
    128. D(C   2,C   1,C   0,H  25)     59.7306         0.011015   
    129. D(C   3,C   1,C   0,H  23)    -59.3722         0.011015   
    130. D(C   2,C   1,C   0,H  23)   -178.3450         0.011015   
    131. D(C   3,C   1,C   0,H  25)    178.7034         0.011015   
    132. D(H  27,C   2,C   1,C   4)     58.8347         0.010661   
    133. D(H  26,C   2,C   1,C   0)    175.6252         0.010661   
    134. D(H  26,C   2,C   1,C   4)    -61.4269         0.010661   
    135. D(H  27,C   2,C   1,C   3)    177.9051         0.010661   
    136. D(H  27,C   2,C   1,C   0)    -64.1132         0.010661   
    137. D(H  26,C   2,C   1,C   3)     57.6436         0.010661   
    138. D(H  29,C   3,C   1,C   2)   -178.5658         0.010650   
    139. D(H  29,C   3,C   1,C   0)     63.4755         0.010650   
    140. D(H  29,C   3,C   1,C   4)    -59.4446         0.010650   
    141. D(H  30,C   3,C   1,C   4)   -179.0916         0.010650   
    142. D(H  30,C   3,C   1,C   2)     61.7872         0.010650   
    143. D(H  30,C   3,C   1,C   0)    -56.1715         0.010650   
    144. D(C   9,C   4,C   1,C   0)     -0.5425         0.011245   
    145. D(C   5,C   4,C   1,C   2)     59.4262         0.011245   
    146. D(C   5,C   4,C   1,C   3)    -60.2629         0.011245   
    147. D(C   9,C   4,C   1,C   2)   -120.7029         0.011245   
    148. D(C   5,C   4,C   1,C   0)    179.5866         0.011245   
    149. D(H  32,C   5,C   4,C   9)    179.8149         0.025809   
    150. D(H  32,C   5,C   4,C   1)     -0.3070         0.025809   
    151. D(C   6,C   5,C   4,C   9)     -0.0441         0.025809   
    152. D(C   6,C   5,C   4,C   1)    179.8339         0.025809   
    153. D(H  33,C   6,C   5,H  32)     -0.0926         0.030103   
    154. D(H  33,C   6,C   5,C   4)    179.7687         0.030103   
    155. D(C   7,C   6,C   5,H  32)    179.7748         0.030103   
    156. D(C   7,C   6,C   5,C   4)     -0.3639         0.030103   
    157. D(C  10,C   7,C   6,H  33)     -0.0430         0.025274   
    158. D(C  10,C   7,C   6,C   5)   -179.9137         0.025274   
    159. D(C   8,C   7,C   6,H  33)   -179.7375         0.025274   
    160. D(C   8,C   7,C   6,C   5)      0.3918         0.025274   
    161. D(H  34,C   8,C   7,C  10)     -0.7688         0.026221   
    162. D(H  34,C   8,C   7,C   6)    178.9061         0.026221   
    163. D(C   9,C   8,C   7,C  10)   -179.6940         0.026221   
    164. D(C   9,C   8,C   7,C   6)     -0.0191         0.026221   
    165. D(H  35,C   9,C   8,C   7)    179.6560         0.028710   
    166. D(C   4,C   9,C   8,H  34)   -179.3419         0.028710   
    167. D(C   4,C   9,C   8,C   7)     -0.3935         0.028710   
    168. D(H  35,C   9,C   8,H  34)      0.7075         0.028710   
    169. D(H  35,C   9,C   4,C   5)   -179.6295         0.026584   
    170. D(H  35,C   9,C   4,C   1)      0.4971         0.026584   
    171. D(C   8,C   9,C   4,C   5)      0.4211         0.026584   
    172. D(C   8,C   9,C   4,C   1)   -179.4523         0.026584   
    173. D(C  12,C  10,C   7,C   8)     -2.2522         0.014705   
    174. D(C  12,C  10,C   7,C   6)    178.0733         0.014705   
    175. D(O  11,C  10,C   7,C   8)    177.5335         0.014705   
    176. D(O  11,C  10,C   7,C   6)     -2.1410         0.014705   
    177. D(H  37,C  12,C  10,C   7)   -164.4773         0.011478   
    178. D(H  36,C  12,C  10,O  11)    135.3747         0.011478   
    179. D(H  36,C  12,C  10,C   7)    -44.8341         0.011478   
    180. D(C  13,C  12,C  10,O  11)   -103.4115         0.011478   
    181. D(C  13,C  12,C  10,C   7)     76.3797         0.011478   
    182. D(C  15,C  13,C  12,H  36)    -74.5414         0.010769   
    183. D(C  15,C  13,C  12,C  10)    163.1065         0.010769   
    184. D(O  14,C  13,C  12,H  37)   -135.0822         0.010769   
    185. D(O  14,C  13,C  12,H  36)    105.8534         0.010769   
    186. D(O  14,C  13,C  12,C  10)    -16.4986         0.010769   
    187. D(C  16,C  15,C  13,O  14)     10.3741         0.014599   
    188. D(C  16,C  15,C  13,C  12)   -169.2311         0.014599   
    189. D(C  22,C  15,C  13,O  14)   -169.0799         0.014599   
    190. D(C  22,C  15,C  13,C  12)     11.3149         0.014599   
    191. D(H  38,C  16,C  15,C  22)    179.6054         0.025529   
    192. D(H  38,C  16,C  15,C  13)      0.1197         0.025529   
    193. D(C  17,C  16,C  15,C  22)     -0.9430         0.025529   
    194. D(C  17,C  16,C  15,C  13)    179.5713         0.025529   
    195. D(H  39,C  17,C  16,H  38)      0.0204         0.029575   
    196. D(H  39,C  17,C  16,C  15)   -179.4202         0.029575   
    197. D(C  18,C  17,C  16,H  38)   -179.9366         0.029575   
    198. D(C  18,C  17,C  16,C  15)      0.6229         0.029575   
    199. D(C  21,C  18,C  17,H  39)   -179.7464         0.025929   
    200. D(C  21,C  18,C  17,C  16)      0.2097         0.025929   
    201. D(O  19,C  18,C  17,H  39)      0.1917         0.025929   
    202. D(O  19,C  18,C  17,C  16)   -179.8522         0.025929   
    203. D(C  20,O  19,C  18,C  21)   -179.2489         0.031291   
    204. D(C  20,O  19,C  18,C  17)      0.8113         0.031291   
    205. D(H  42,C  20,O  19,C  18)     60.2674         0.020430   
    206. D(H  41,C  20,O  19,C  18)    -62.4894         0.020430   
    207. D(H  40,C  20,O  19,C  18)    178.8884         0.020430   
    208. D(H  43,C  21,C  18,O  19)     -0.4743         0.024757   
    209. D(H  43,C  21,C  18,C  17)    179.4695         0.024757   
    210. D(C  22,C  21,C  18,O  19)    179.3454         0.024757   
    211. D(C  22,C  21,C  18,C  17)     -0.7108         0.024757   
    212. D(H  44,C  22,C  21,H  43)     -0.5429         0.030658   
    213. D(H  44,C  22,C  21,C  18)    179.6429         0.030658   
    214. D(C  15,C  22,C  21,H  43)   -179.8024         0.030658   
    215. D(C  15,C  22,C  21,C  18)      0.3834         0.030658   
    216. D(H  44,C  22,C  15,C  16)   -178.8121         0.024975   
    217. D(H  44,C  22,C  15,C  13)      0.6404         0.024975   
    218. D(C  21,C  22,C  15,C  16)      0.4328         0.024975   
    219. D(C  21,C  22,C  15,C  13)    179.8852         0.024975   
    -----------------------------------------------------------------

Number of atoms                         .... 45
Number of degrees of freedom            .... 219


         *************************************************************
         *                GEOMETRY OPTIMIZATION CYCLE   1            *
         *************************************************************
---------------------------------
CARTESIAN COORDINATES (ANGSTROEM)
---------------------------------
  C     -4.976824   -0.227532   -1.875102
  C     -4.956465    0.384022   -0.470962
  C     -5.339257    1.867430   -0.587465
  C     -5.991823   -0.354954    0.391005
  C     -3.596493    0.277679    0.197687
  C     -3.418259    0.799201    1.480258
  C     -2.203228    0.720139    2.121873
  C     -1.104331    0.106168    1.512166
  C     -1.275320   -0.415937    0.231061
  C     -2.497510   -0.324924   -0.408324
  C      0.162206    0.056580    2.257879
  O      0.282104    0.565326    3.361427
  C      1.349617   -0.644837    1.627740
  C      1.995402    0.209182    0.541191
  O      1.420410    1.162521    0.046065
  C      3.354817   -0.176840    0.130629
  C      4.066227    0.705467   -0.686742
  C      5.348097    0.426658   -1.110403
  C      5.956589   -0.770097   -0.730147
  O      7.202619   -1.152874   -1.077435
  C      7.994657   -0.293356   -1.877301
  C      5.244438   -1.668934    0.075261
  C      3.970908   -1.378339    0.501321
  H     -4.739888   -1.288360   -1.844050
  H     -5.972137   -0.118337   -2.300347
  H     -4.273801    0.278936   -2.532250
  H     -5.415997    2.336684    0.389191
  H     -4.590356    2.404488   -1.165992
  H     -6.299574    1.964399   -1.088712
  H     -5.713643   -1.401244    0.499012
  H     -6.970582   -0.303562   -0.080297
  H     -6.067452    0.082139    1.382481
  H     -4.239780    1.278448    1.989815
  H     -2.074103    1.130113    3.113219
  H     -0.454143   -0.883485   -0.288918
  H     -2.581040   -0.737669   -1.400001
  H      1.046832   -1.596600    1.190483
  H      2.085056   -0.822965    2.414157
  H      3.587097    1.629005   -0.977159
  H      5.863643    1.139912   -1.732473
  H      8.944792   -0.809501   -1.999670
  H      7.536994   -0.131153   -2.856627
  H      8.160107    0.666603   -1.381385
  H      5.727013   -2.592780    0.352320
  H      3.452382   -2.096826    1.114771

----------------------------
CARTESIAN COORDINATES (A.U.)
----------------------------
  NO LB      ZA    FRAG     MASS         X           Y           Z
   0 C     6.0000    0    12.011   -9.404834   -0.429973   -3.543429
   1 C     6.0000    0    12.011   -9.366362    0.725697   -0.889989
   2 C     6.0000    0    12.011  -10.089733    3.528931   -1.110148
   3 C     6.0000    0    12.011  -11.322905   -0.670766    0.738892
   4 C     6.0000    0    12.011   -6.796387    0.524738    0.373575
   5 C     6.0000    0    12.011   -6.459574    1.510271    2.797282
   6 C     6.0000    0    12.011   -4.163498    1.360866    4.009758
   7 C     6.0000    0    12.011   -2.086882    0.200629    2.857579
   8 C     6.0000    0    12.011   -2.410006   -0.786007    0.436643
   9 C     6.0000    0    12.011   -4.719610   -0.614016   -0.771620
  10 C     6.0000    0    12.011    0.306526    0.106920    4.266773
  11 O     8.0000    0    15.999    0.533100    1.068312    6.352177
  12 C     6.0000    0    12.011    2.550406   -1.218565    3.075983
  13 C     6.0000    0    12.011    3.770763    0.395297    1.022702
  14 O     8.0000    0    15.999    2.684185    2.196847    0.087050
  15 C     6.0000    0    12.011    6.339686   -0.334180    0.246852
  16 C     6.0000    0    12.011    7.684055    1.333140   -1.297754
  17 C     6.0000    0    12.011   10.106438    0.806267   -2.098358
  18 C     6.0000    0    12.011   11.256323   -1.455272   -1.379777
  19 O     8.0000    0    15.999   13.610978   -2.178616   -2.036057
  20 C     6.0000    0    12.011   15.107713   -0.554362   -3.547585
  21 C     6.0000    0    12.011    9.910552   -3.153828    0.142223
  22 C     6.0000    0    12.011    7.503929   -2.604684    0.947359
  23 H     1.0000    0     1.008   -8.957090   -2.434647   -3.484750
  24 H     1.0000    0     1.008  -11.285704   -0.223625   -4.347025
  25 H     1.0000    0     1.008   -8.076313    0.527113   -4.785259
  26 H     1.0000    0     1.008  -10.234750    4.415693    0.735464
  27 H     1.0000    0     1.008   -8.674516    4.543825   -2.203406
  28 H     1.0000    0     1.008  -11.904470    3.712176   -2.057367
  29 H     1.0000    0     1.008  -10.797221   -2.647967    0.942996
  30 H     1.0000    0     1.008  -13.172491   -0.573648   -0.151740
  31 H     1.0000    0     1.008  -11.465822    0.155221    2.612511
  32 H     1.0000    0     1.008   -8.012024    2.415916    3.760206
  33 H     1.0000    0     1.008   -3.919486    2.135604    5.883131
  34 H     1.0000    0     1.008   -0.858206   -1.669545   -0.545976
  35 H     1.0000    0     1.008   -4.877459   -1.393992   -2.645618
  36 H     1.0000    0     1.008    1.978225   -3.017138    2.249686
  37 H     1.0000    0     1.008    3.940185   -1.555178    4.562095
  38 H     1.0000    0     1.008    6.778631    3.078374   -1.846563
  39 H     1.0000    0     1.008   11.080679    2.154122   -3.273899
  40 H     1.0000    0     1.008   16.903207   -1.529735   -3.778828
  41 H     1.0000    0     1.008   14.242854   -0.247844   -5.398242
  42 H     1.0000    0     1.008   15.420367    1.259697   -2.610439
  43 H     1.0000    0     1.008   10.822487   -4.899643    0.665787
  44 H     1.0000    0     1.008    6.524056   -3.962427    2.106611

--------------------------------
INTERNAL COORDINATES (ANGSTROEM)
--------------------------------
 C      0   0   0     0.000000000000     0.00000000     0.00000000
 C      1   0   0     1.531672965317     0.00000000     0.00000000
 C      2   1   0     1.536424255494   108.22018052     0.00000000
 C      2   1   3     1.536567475542   108.25724225   118.97282160
 C      2   1   3     1.519185633723   112.79523101   239.44720402
 C      5   2   1     1.395972391980   119.50682504   179.58659543
 C      6   5   2     1.376307058915   121.30343937   179.83393278
 C      7   6   5     1.398670515370   121.03789168   359.63606941
 C      8   7   6     1.393936892703   117.94829869     0.39181645
 C      9   8   7     1.382333095719   120.59027359     0.00000000
 C      8   7   6     1.470599410415   118.06076570   180.08632618
 O     11   8   7     1.221072251561   121.92392353   357.85895445
 C     11   8   7     1.516246704692   118.64085634   178.07326080
 C     13  11   8     1.525442799804   111.62699614    76.37969497
 O     14  13  11     1.218450335367   121.85030305   343.50139738
 C     14  13  11     1.471592545298   116.29133627   163.10654401
 C     16  14  13     1.397377903909   117.89540009   190.76893588
 C     17  16  14     1.378555122298   121.69924038   179.57131526
 C     18  17  16     1.395378349552   119.68311481     0.62286995
 O     19  18  17     1.348969308981   125.17022943   180.14780903
 C     20  19  18     1.416291643791   119.32410546     0.81128104
 C     19  18  17     1.401338752786   119.02061253     0.20972731
 C     22  19  18     1.373990713062   120.90396701   359.28919239
 H      1   2   3     1.087409326002   111.12708822   181.65497612
 H      1   2   3     1.087844361273   109.29552485   300.70903464
 H      1   2   3     1.087471659021   111.06510877    59.73056106
 H      3   2   1     1.086252525409   111.50064611   175.62519367
 H      3   2   1     1.088107714321   110.20496244   295.88677291
 H      3   2   1     1.087594215439   109.93888684    55.53830109
 H      4   2   1     1.088012610973   110.23634109    63.47554389
 H      4   2   1     1.087536339849   109.91246794   303.82854807
 H      4   2   1     1.086183963520   111.43476510   183.77013962
 H      6   5   2     1.078991497189   120.17306690   359.69297259
 H      7   6   5     1.080517496814   120.75826757   179.76866975
 H      9   8   7     1.078569370961   120.80040973   178.90607161
 H     10   9   8     1.077385104346   117.97391467   179.65595459
 H     13  11   8     1.090287547741   110.67184009   315.16587755
 H     13  11   8     1.091353174041   107.68388790   195.52271226
 H     17  16  14     1.080198812515   118.11715889     0.11966367
 H     18  17  16     1.077724141658   119.23241528   180.57983819
 H     21  20  19     1.088180345120   105.30419924   178.88835668
 H     21  20  19     1.093089427941   111.21649197   297.51061434
 H     21  20  19     1.093081210932   111.18565751    60.26741709
 H     22  19  18     1.078485391492   118.01467218   179.46946181
 H     23  22  19     1.077689142879   118.78177119   179.64288261

---------------------------
INTERNAL COORDINATES (A.U.)
---------------------------
 C      0   0   0     0.000000000000     0.00000000     0.00000000
 C      1   0   0     2.894442431180     0.00000000     0.00000000
 C      2   1   0     2.903421068397   108.22018052     0.00000000
 C      2   1   3     2.903691715064   108.25724225   118.97282160
 C      2   1   3     2.870844794324   112.79523101   239.44720402
 C      5   2   1     2.638005511357   119.50682504   179.58659543
 C      6   5   2     2.600843417532   121.30343937   179.83393278
 C      7   6   5     2.643104225640   121.03789168   359.63606941
 C      8   7   6     2.634158975177   117.94829869     0.39181645
 C      9   8   7     2.612230976764   120.59027359     0.00000000
 C      8   7   6     2.779030138391   118.06076570   180.08632618
 O     11   8   7     2.307492145182   121.92392353   357.85895445
 C     11   8   7     2.865291023328   118.64085634   178.07326080
 C     13  11   8     2.882669124592   111.62699614    76.37969497
 O     14  13  11     2.302537441627   121.85030305   343.50139738
 C     14  13  11     2.780906891333   116.29133627   163.10654401
 C     16  14  13     2.640661543981   117.89540009   190.76893588
 C     17  16  14     2.605091641657   121.69924038   179.57131526
 C     18  17  16     2.636882933856   119.68311481     0.62286995
 O     19  18  17     2.549182557038   125.17022943   180.14780903
 C     20  19  18     2.676403332526   119.32410546     0.81128104
 C     19  18  17     2.648146463616   119.02061253     0.20972731
 C     22  19  18     2.596466158239   120.90396701   359.28919239
 H      1   2   3     2.054905821616   111.12708822   181.65497612
 H      1   2   3     2.055727919137   109.29552485   300.70903464
 H      1   2   3     2.055023613951   111.06510877    59.73056106
 H      3   2   1     2.052719785303   111.50064611   175.62519367
 H      3   2   1     2.056225584273   110.20496244   295.88677291
 H      3   2   1     2.055255212017   109.93888684    55.53830109
 H      4   2   1     2.056045864992   110.23634109    63.47554389
 H      4   2   1     2.055145843001   109.91246794   303.82854807
 H      4   2   1     2.052590222111   111.43476510   183.77013962
 H      6   5   2     2.038998430518   120.17306690   359.69297259
 H      7   6   5     2.041882151889   120.75826757   179.76866975
 H      9   8   7     2.038200727552   120.80040973   178.90607161
 H     10   9   8     2.035962787980   117.97391467   179.65595459
 H     13  11   8     2.060344872455   110.67184009   315.16587755
 H     13  11   8     2.062358614322   107.68388790   195.52271226
 H     17  16  14     2.041279925840   118.11715889     0.11966367
 H     18  17  16     2.036603475650   119.23241528   180.57983819
 H     21  20  19     2.056362836593   105.30419924   178.88835668
 H     21  20  19     2.065639658693   111.21649197   297.51061434
 H     21  20  19     2.065624130797   111.18565751    60.26741709
 H     22  19  18     2.038042029355   118.01467218   179.46946181
 H     23  22  19     2.036537337541   118.78177119   179.64288261

---------------------
BASIS SET INFORMATION
---------------------
There are 3 groups of distinct atoms

 Group   1 Type C   : 7s4p1d contracted to 3s2p1d pattern {511/31/1}
 Group   2 Type O   : 7s4p1d contracted to 3s2p1d pattern {511/31/1}
 Group   3 Type H   : 4s1p contracted to 2s1p pattern {31/1}

Atom   0C    basis set group =>   1
Atom   1C    basis set group =>   1
Atom   2C    basis set group =>   1
Atom   3C    basis set group =>   1
Atom   4C    basis set group =>   1
Atom   5C    basis set group =>   1
Atom   6C    basis set group =>   1
Atom   7C    basis set group =>   1
Atom   8C    basis set group =>   1
Atom   9C    basis set group =>   1
Atom  10C    basis set group =>   1
Atom  11O    basis set group =>   2
Atom  12C    basis set group =>   1
Atom  13C    basis set group =>   1
Atom  14O    basis set group =>   2
Atom  15C    basis set group =>   1
Atom  16C    basis set group =>   1
Atom  17C    basis set group =>   1
Atom  18C    basis set group =>   1
Atom  19O    basis set group =>   2
Atom  20C    basis set group =>   1
Atom  21C    basis set group =>   1
Atom  22C    basis set group =>   1
Atom  23H    basis set group =>   3
Atom  24H    basis set group =>   3
Atom  25H    basis set group =>   3
Atom  26H    basis set group =>   3
Atom  27H    basis set group =>   3
Atom  28H    basis set group =>   3
Atom  29H    basis set group =>   3
Atom  30H    basis set group =>   3
Atom  31H    basis set group =>   3
Atom  32H    basis set group =>   3
Atom  33H    basis set group =>   3
Atom  34H    basis set group =>   3
Atom  35H    basis set group =>   3
Atom  36H    basis set group =>   3
Atom  37H    basis set group =>   3
Atom  38H    basis set group =>   3
Atom  39H    basis set group =>   3
Atom  40H    basis set group =>   3
Atom  41H    basis set group =>   3
Atom  42H    basis set group =>   3
Atom  43H    basis set group =>   3
Atom  44H    basis set group =>   3
---------------------------------
AUXILIARY/J BASIS SET INFORMATION
---------------------------------
There are 3 groups of distinct atoms

 Group   1 Type C   : 12s5p4d2f1g contracted to 6s4p3d1f1g pattern {711111/2111/211/2/1}
 Group   2 Type O   : 12s5p4d2f1g contracted to 6s4p3d1f1g pattern {711111/2111/211/2/1}
 Group   3 Type H   : 5s2p1d contracted to 3s1p1d pattern {311/2/1}

Atom   0C    basis set group =>   1
Atom   1C    basis set group =>   1
Atom   2C    basis set group =>   1
Atom   3C    basis set group =>   1
Atom   4C    basis set group =>   1
Atom   5C    basis set group =>   1
Atom   6C    basis set group =>   1
Atom   7C    basis set group =>   1
Atom   8C    basis set group =>   1
Atom   9C    basis set group =>   1
Atom  10C    basis set group =>   1
Atom  11O    basis set group =>   2
Atom  12C    basis set group =>   1
Atom  13C    basis set group =>   1
Atom  14O    basis set group =>   2
Atom  15C    basis set group =>   1
Atom  16C    basis set group =>   1
Atom  17C    basis set group =>   1
Atom  18C    basis set group =>   1
Atom  19O    basis set group =>   2
Atom  20C    basis set group =>   1
Atom  21C    basis set group =>   1
Atom  22C    basis set group =>   1
Atom  23H    basis set group =>   3
Atom  24H    basis set group =>   3
Atom  25H    basis set group =>   3
Atom  26H    basis set group =>   3
Atom  27H    basis set group =>   3
Atom  28H    basis set group =>   3
Atom  29H    basis set group =>   3
Atom  30H    basis set group =>   3
Atom  31H    basis set group =>   3
Atom  32H    basis set group =>   3
Atom  33H    basis set group =>   3
Atom  34H    basis set group =>   3
Atom  35H    basis set group =>   3
Atom  36H    basis set group =>   3
Atom  37H    basis set group =>   3
Atom  38H    basis set group =>   3
Atom  39H    basis set group =>   3
Atom  40H    basis set group =>   3
Atom  41H    basis set group =>   3
Atom  42H    basis set group =>   3
Atom  43H    basis set group =>   3
Atom  44H    basis set group =>   3


           ************************************************************
           *        Program running with 4 parallel MPI-processes     *
           *              working on a common directory               *
           ************************************************************
------------------------------------------------------------------------------
                             ORCA STARTUP CALCULATIONS
                           -- RI-GTO INTEGRALS CHOSEN --
------------------------------------------------------------------------------
------------------------------------------------------------------------------
                   ___                                                        
                  /   \      - P O W E R E D   B Y -                         
                 /     \                                                     
                 |  |  |   _    _      __       _____    __    __             
                 |  |  |  | |  | |    /  \     |  _  \  |  |  /  |          
                  \  \/   | |  | |   /    \    | | | |  |  | /  /          
                 / \  \   | |__| |  /  /\  \   | |_| |  |  |/  /          
                |  |  |   |  __  | /  /__\  \  |    /   |      \           
                |  |  |   | |  | | |   __   |  |    \   |  |\   \          
                \     /   | |  | | |  |  |  |  | |\  \  |  | \   \       
                 \___/    |_|  |_| |__|  |__|  |_| \__\ |__|  \__/        
                                                                              
                      - O R C A' S   B I G   F R I E N D -                    
                                      &                                       
                       - I N T E G R A L  F E E D E R -                       
                                                                              
 v1 FN, 2020, v2 2021, v3 2022-2024                                           
------------------------------------------------------------------------------


----------------------
SHARK INTEGRAL PACKAGE
----------------------

Number of atoms                             ...     45
Number of basis functions                   ...    432
Number of shells                            ...    204
Maximum angular momentum                    ...      2
Integral batch strategy                     ... SHARK/LIBINT Hybrid
RI-J (if used) integral strategy            ... SPLIT-RIJ (Revised 2003 algorithm where possible)
Printlevel                                  ...      1
Contraction scheme used                     ... SEGMENTED contraction
Prescreening option                         ... SCHWARTZ
   Thresh                                   ... 2.500e-11
   Tcut                                     ... 2.500e-12
   Tpresel                                  ... 2.500e-12 
Coulomb Range Separation                    ... NOT USED
Exchange Range Separation                   ... NOT USED
Multipole approximations                    ... NOT USED
Finite Nucleus Model                        ... NOT USED
CABS basis                                  ... NOT available
Auxiliary Coulomb fitting basis             ... AVAILABLE
   # of basis functions in Aux-J            ...   1369
   # of shells in Aux-J                     ...    455
   Maximum angular momentum in Aux-J        ...      4
Auxiliary J/K fitting basis                 ... NOT available
Auxiliary Correlation fitting basis         ... NOT available
Auxiliary 'external' fitting basis          ... NOT available

Checking pre-screening integrals            ... done (  0.0 sec) Dimension = 204
   => SHARK Basis and OBASIS are compatible. Storing Pre-screening
Shell pair information
Shell pair cut-off parameter TPreSel        ...   2.5e-12
Total number of shell pairs                 ...     20910
Shell pairs after pre-screening             ...     12787
Total number of primitive shell pairs       ...     75056
Primitive shell pairs kept                  ...     29877
          la=0 lb=0:   4038 shell pairs
          la=1 lb=0:   4783 shell pairs
          la=1 lb=1:   1465 shell pairs
          la=2 lb=0:   1480 shell pairs
          la=2 lb=1:    880 shell pairs
          la=2 lb=2:    141 shell pairs

Checking whether 4 symmetric matrices of dimension 432 fit in memory
:Max Core in MB      =   2500.00
 MB in use           =     15.91
 MB left             =   2484.09
 MB needed           =      2.85
 Data fit in memory  = YES
Calculating RI/J V-Matrix + Cholesky decomp.... done (  0.2 sec)
Calculating Nuclear repulsion               ... done (  0.0 sec) ENN=   1767.718412052166 Eh

Diagonalization of the overlap matrix:
Smallest eigenvalue                        ... 2.462e-04
Time for diagonalization                   ...    0.037 sec
Threshold for overlap eigenvalues          ... 1.000e-07
Number of eigenvalues below threshold      ... 0
Time for construction of square roots      ...    0.027 sec
Total time needed                          ...    0.069 sec

-------------------
DFT GRID GENERATION
-------------------

General Integration Accuracy     IntAcc      ... 4.388
Radial Grid Type                 RadialGrid  ... OptM3 with GC (2021)
Angular Grid (max. ang.)         AngularGrid ... 4 (Lebedev-302)
Angular grid pruning method      GridPruning ... 4 (adaptive)
Weight generation scheme         WeightScheme... mBecke (2022)
Basis function cutoff            BFCut       ... 1.0000e-11
Integration weight cutoff        WCut        ... 1.0000e-14
Partially contracted basis set               ... off
Rotationally invariant grid construction     ... off
Angular grids for H and He will be reduced by one unit

Total number of grid points                  ...   207536
Total number of batches                      ...     3262
Average number of points per batch           ...       63
Average number of grid points per atom       ...     4612

--------------------
COSX GRID GENERATION
--------------------

GRIDX 1
-------
General Integration Accuracy     IntAcc      ... 3.816
Radial Grid Type                 RadialGrid  ... OptM3 with GC (2021)
Angular Grid (max. ang.)         AngularGrid ... 1 (Lebedev-50)
Angular grid pruning method      GridPruning ... 4 (adaptive)
Weight generation scheme         WeightScheme... mBecke (2022)
Basis function cutoff            BFCut       ... 1.0000e-11
Integration weight cutoff        WCut        ... 1.0000e-14
Partially contracted basis set               ... on
Rotationally invariant grid construction     ... off
Angular grids for H and He will be reduced by one unit

Total number of grid points                  ...    26409
Total number of batches                      ...      232
Average number of points per batch           ...      113
Average number of grid points per atom       ...      587
UseSFitting                                  ... on

GRIDX 2
-------
General Integration Accuracy     IntAcc      ... 4.020
Radial Grid Type                 RadialGrid  ... OptM3 with GC (2021)
Angular Grid (max. ang.)         AngularGrid ... 2 (Lebedev-110)
Angular grid pruning method      GridPruning ... 4 (adaptive)
Weight generation scheme         WeightScheme... mBecke (2022)
Basis function cutoff            BFCut       ... 1.0000e-11
Integration weight cutoff        WCut        ... 1.0000e-14
Partially contracted basis set               ... on
Rotationally invariant grid construction     ... off
Angular grids for H and He will be reduced by one unit

Total number of grid points                  ...    56703
Total number of batches                      ...      468
Average number of points per batch           ...      121
Average number of grid points per atom       ...     1260
UseSFitting                                  ... on

GRIDX 3
-------
General Integration Accuracy     IntAcc      ... 4.338
Radial Grid Type                 RadialGrid  ... OptM3 with GC (2021)
Angular Grid (max. ang.)         AngularGrid ... 3 (Lebedev-194)
Angular grid pruning method      GridPruning ... 4 (adaptive)
Weight generation scheme         WeightScheme... mBecke (2022)
Basis function cutoff            BFCut       ... 1.0000e-11
Integration weight cutoff        WCut        ... 1.0000e-14
Partially contracted basis set               ... on
Rotationally invariant grid construction     ... off
Angular grids for H and He will be reduced by one unit

Total number of grid points                  ...   123766
Total number of batches                      ...      991
Average number of points per batch           ...      124
Average number of grid points per atom       ...     2750
UseSFitting                                  ... on
Grids setup in   7.6 sec
Initializing property integral containers    ... done (  0.1 sec)

SHARK setup successfully completed in   8.4 seconds

Maximum memory used throughout the entire STARTUP-calculation: 59.4 MB


           ************************************************************
           *        Program running with 4 parallel MPI-processes     *
           *              working on a common directory               *
           ************************************************************
-------------------------------------------------------------------------------
                                 ORCA GUESS
                   Start orbitals & Density for SCF / CASSCF
-------------------------------------------------------------------------------

------------
SCF SETTINGS
------------
Hamiltonian:
 Density Functional     Method          .... DFT(GTOs)
 Exchange Functional    Exchange        .... B88
   X-Alpha parameter    XAlpha          ....  0.666667
   Becke's b parameter  XBeta           ....  0.004200
 Correlation Functional Correlation     .... LYP
 LDA part of GGA corr.  LDAOpt          .... VWN-5
 Gradients option       PostSCFGGA      .... off
 Hybrid DFT is turned on
   Fraction HF Exchange ScalHFX         ....  0.200000
   Scaling of DF-GGA-X  ScalDFX         ....  0.720000
   Scaling of DF-GGA-C  ScalDFC         ....  0.810000
   Scaling of DF-LDA-C  ScalLDAC        ....  1.000000
   Perturbative correction              ....  0.000000
   NL short-range parameter             ....  4.800000
 RI-approximation to the Coulomb term is turned on
   Number of AuxJ basis functions       .... 1369
   RIJ-COSX (HFX calculated with COS-X)).... on


General Settings:
 Integral files         IntName         .... opt
 Hartree-Fock type      HFTyp           .... RHF
 Total Charge           Charge          ....    0
 Multiplicity           Mult            ....    1
 Number of Electrons    NEL             ....  166
 Basis Dimension        Dim             ....  432
 Nuclear Repulsion      ENuc            ....   1767.7184120522 Eh

Convergence Acceleration:
 AO-DIIS                CNVDIIS         .... on
   Start iteration      DIISMaxIt       ....    12
   Startup error        DIISStart       ....  0.200000
   # of expansion vecs  DIISMaxEq       ....     5
   Bias factor          DIISBfac        ....   1.050
   Max. coefficient     DIISMaxC        ....  10.000
 MO-DIIS                CNVKDIIS        .... off
 Trust-Rad. Augm. Hess. CNVTRAH         .... auto
   Auto Start mean grad. ratio tolernc. ....  1.125000
   Auto Start start iteration           ....    50
   Auto Start num. interpolation iter.  ....    10
   Max. Number of Micro iterations      ....    24
   Max. Number of Macro iterations      .... Maxiter - #DIIS iter
   Number of Davidson start vectors     ....     2
   Converg. threshold    (grad. norm)   ....   1.000e-05
   Grad. Scal. Fac. for Micro threshold ....   0.100
   Minimum threshold for Micro iter.    ....   1.000e-02
   NR start threshold (gradient norm)   ....   1.000e-04
   Initial trust radius                 ....   0.400
   Minimum AH scaling param. (alpha)    ....   1.000
   Maximum AH scaling param. (alpha)    .... 1000.000
   Quad. conv. algorithm                .... NR
   White noise on init. David. guess    .... on
   Maximum white noise                  ....   0.010
   Pseudo random numbers                .... off
   Inactive MOs                         .... canonical
   Orbital update algorithm             .... Taylor
   Preconditioner                       .... Diag
   Full preconditioner red. dimension   ....   250
 SOSCF                 CNVSOSCF           .... on
   Start iteration     SOSCFMaxIt         ....   150
   Startup grad/error  SOSCFStart         ....  0.003300
   Hessian update      SOSCFHessUp        .... L-BFGS
   Autom. constraints  SOSCFAutoConstrain .... off
 Level Shifting         CNVShift        .... on
   Level shift para.    LevelShift      ....    0.2500
   Turn off err/grad.   ShiftErr        ....    0.0010
 Zerner damping         CNVZerner       .... off
 Static damping         CNVDamp         .... on
   Fraction old density DampFac         ....    0.7000
   Max. Damping (<1)    DampMax         ....    0.9800
   Min. Damping (>=0)   DampMin         ....    0.0000
   Turn off err/grad.   DampErr         ....    0.1000

SCF Procedure:
 Maximum # iterations   MaxIter         ....   300
 SCF integral mode      SCFMode         .... Direct
   Integral package                     .... SHARK and LIBINT hybrid scheme
 Reset frequency        DirectResetFreq ....    20
 Integral Threshold     Thresh          ....  2.500e-11 Eh
 Primitive CutOff       TCut            ....  2.500e-12 Eh

Convergence Tolerance:
 Convergence Check Mode ConvCheckMode   .... Total+1el-Energy
 Convergence forced     ConvForced      .... 0
 Energy Change          TolE            ....  1.000e-08 Eh
 1-El. energy change                    ....  1.000e-05 Eh
 Orbital Gradient       TolG            ....  1.000e-05
 Orbital Rotation angle TolX            ....  1.000e-05
 DIIS Error             TolErr          ....  5.000e-07

------------------------------
INITIAL GUESS: MODEL POTENTIAL
------------------------------
Loading Hartree-Fock densities                     ... done
Calculating cut-offs                               ... done
Initializing the effective Hamiltonian             ... done
Setting up the integral package (SHARK)            ... done
Starting the Coulomb interaction                   ... done (   1.1 sec)
Making the grid                                    ... done (   0.9 sec)
Mapping shells                                     ... done
Starting the XC term evaluation                    ... done (   0.7 sec)
  promolecular density results
     # of electrons  =    165.980229832
     EX              =   -134.031029396
     EC              =     -5.600812660
     EX+EC           =   -139.631842056
Transforming the Hamiltonian                       ... done (   0.0 sec)
Diagonalizing the Hamiltonian                      ... done (   0.0 sec)
Back transforming the eigenvectors                 ... done (   0.0 sec)
Now organizing SCF variables                       ... done
                      ------------------
                      INITIAL GUESS DONE (   2.8 sec)
                      ------------------
             **** ENERGY FILE WAS UPDATED (opt.en.tmp) ****
Finished Guess after   3.2 sec
Maximum memory used throughout the entire GUESS-calculation: 22.3 MB


           ************************************************************
           *        Program running with 4 parallel MPI-processes     *
           *              working on a common directory               *
           ************************************************************

-------------------------------------------------------------------------------------------
                                      ORCA LEAN-SCF
                              memory conserving SCF solver
-------------------------------------------------------------------------------------------

--------------------
CPCM SOLVATION MODEL
--------------------
CPCM parameters:
  Epsilon                                         ...      25.4510
  Refrac                                          ...       1.3611
  Rsolv                                           ...       1.3000
  Surface type                                    ... GAUSSIAN VDW
  Discretization scheme                           ... Constant charge density
    Threshold for H atoms                         ...       5.0000 (charges/Ang^2)
    Threshold for non-H atoms                     ...       5.0000 (charges/Ang^2)
  Epsilon function type                           ...         CPCM
Solvent:                                          ... ETHANOL
Radii:
  Scheme                                          ... Element-dependent radii
  Radius for C  used is    3.8550 Bohr (=   2.0400 Ang.)
  Radius for O  used is    3.4469 Bohr (=   1.8240 Ang.)
  Radius for H  used is    2.4944 Bohr (=   1.3200 Ang.)
Calculating surface                               ...        done! (  0.0s)
Cavity surface points                             ...         3783
Cavity Volume                                     ...    2621.5127
Cavity Surface-area                               ...    1339.6925
Calculating surface distance matrix               ...        done! (  0.2s)
Performing Cholesky decomposition & store         ...        done! (  0.8s)
Overall time for CPCM initialization              ...                 1.0s

----------------------------------------D-I-I-S--------------------------------------------
Iteration    Energy (Eh)           Delta-E    RMSDP     MaxDP     DIISErr   Damp  Time(sec)
-------------------------------------------------------------------------------------------
               ***  Starting incremental Fock matrix formation  ***
    1    -999.1656145478204962     0.00e+00  5.07e-03  1.24e-01  2.44e-01  0.700  21.2
    2    -999.4225980807527776    -2.57e-01  3.47e-03  8.86e-02  9.62e-02  0.700  12.4
                               ***Turning on AO-DIIS***
    3    -999.5275382006493601    -1.05e-01  1.49e-03  2.15e-02  3.45e-02  0.700  10.5
    4    -999.5905563022156457    -6.30e-02  2.74e-03  3.36e-02  1.73e-02  0.000  11.7
    5    -999.7267963921185583    -1.36e-01  4.30e-04  1.05e-02  6.55e-03  0.000  11.5
                              *** Initializing SOSCF ***
---------------------------------------S-O-S-C-F--------------------------------------
Iteration    Energy (Eh)           Delta-E    RMSDP     MaxDP     MaxGrad    Time(sec)
--------------------------------------------------------------------------------------
    6    -999.7276464681467587    -8.50e-04  1.51e-04  5.38e-03  1.52e-03     8.5
               *** Restarting incremental Fock matrix formation ***
    7    -999.7274613564131869     1.85e-04  9.79e-05  3.49e-03  2.26e-04    19.3
    8    -999.7274628347781800    -1.48e-06  3.36e-05  8.86e-04  3.02e-04    14.0
    9    -999.7274674798759406    -4.65e-06  2.61e-05  9.73e-04  1.11e-04    10.6
   10    -999.7274673767133208     1.03e-07  1.13e-05  3.60e-04  7.36e-05    11.9
   11    -999.7274680086497938    -6.32e-07  4.39e-06  1.06e-04  1.50e-05    10.8
   12    -999.7274679942374860     1.44e-08  2.72e-06  6.81e-05  2.22e-05     8.6
   13    -999.7274680264717972    -3.22e-08  8.33e-07  2.43e-05  2.24e-06     8.0
                  *** Gradient check signals convergence ***

               *****************************************************
               *                     SUCCESS                       *
               *           SCF CONVERGED AFTER  13 CYCLES          *
               *****************************************************

Recomputing exchange energy using gridx3       ... done (   30.667 sec)
Old exchange energy                            :    -27.237231630 Eh
New exchange energy                            :    -27.237350905 Eh
Exchange energy change after final integration :     -0.000119274 Eh
Total energy after final integration           :   -999.727587306 Eh
             **** ENERGY FILE WAS UPDATED (opt.en.tmp) ****

----------------
TOTAL SCF ENERGY
----------------

Total Energy       :       -999.72758730597582 Eh          -27203.97067 eV

Components:
Nuclear Repulsion  :       1767.71841205216560 Eh           48102.06345 eV
Electronic Energy  :      -2767.42351422165211 Eh          -75305.42228 eV
One Electron Energy:      -4868.92062294945026 Eh         -132490.06582 eV
Two Electron Energy:       2101.49710872779815 Eh           57184.64354 eV
CPCM Dielectric    :         -0.02236586213935 Eh              -0.60861 eV

Virial components:
Potential Energy   :      -1990.15436998946620 Eh          -54154.85359 eV
Kinetic Energy     :        990.42678268349039 Eh           26950.88291 eV
Virial Ratio       :          2.00939070387140

DFT components:
N(Alpha)           :       83.000001146315 electrons
N(Beta)            :       83.000001146315 electrons
N(Total)           :      166.000002292631 electrons
E(X)               :     -108.144371891235 Eh       
E(C)               :       -6.600535611570 Eh       
E(XC)              :     -114.744907502805 Eh       

CPCM Solvation Model Properties:
Surface-charge          :         -0.03103176122188
Corrected charge        :          0.00000000000000
Outlying charge corr.   :          0.00004575713890 Eh               0.00125 eV
Free-energy (cav+disp)  :  This term is not implemented in the current solvation scheme

---------------
SCF CONVERGENCE
---------------

  Last Energy change         ...    3.2234e-08  Tolerance :   1.0000e-08
  Last MAX-Density change    ...    2.4294e-05  Tolerance :   1.0000e-07
  Last RMS-Density change    ...    8.3276e-07  Tolerance :   5.0000e-09
  Last DIIS Error            ...    1.5210e-03  Tolerance :   5.0000e-07
  Last Orbital Gradient      ...    2.2432e-06  Tolerance :   1.0000e-05
  Last Orbital Rotation      ...    7.7654e-06  Tolerance :   1.0000e-05


----------------
ORBITAL ENERGIES
----------------

  NO   OCC          E(Eh)            E(eV) 
   0   2.0000     -19.171263      -521.6766 
   1   2.0000     -19.126332      -520.4539 
   2   2.0000     -19.123417      -520.3746 
   3   2.0000     -10.278882      -279.7026 
   4   2.0000     -10.273579      -279.5583 
   5   2.0000     -10.258241      -279.1409 
   6   2.0000     -10.234335      -278.4904 
   7   2.0000     -10.198352      -277.5113 
   8   2.0000     -10.196149      -277.4513 
   9   2.0000     -10.195347      -277.4295 
  10   2.0000     -10.193702      -277.3847 
  11   2.0000     -10.192501      -277.3520 
  12   2.0000     -10.190081      -277.2862 
  13   2.0000     -10.189557      -277.2719 
  14   2.0000     -10.189202      -277.2623 
  15   2.0000     -10.188258      -277.2366 
  16   2.0000     -10.187872      -277.2261 
  17   2.0000     -10.187715      -277.2218 
  18   2.0000     -10.183204      -277.0991 
  19   2.0000     -10.182943      -277.0920 
  20   2.0000     -10.167160      -276.6625 
  21   2.0000     -10.167062      -276.6598 
  22   2.0000     -10.165353      -276.6133 
  23   2.0000      -1.066461       -29.0199 
  24   2.0000      -1.037443       -28.2303 
  25   2.0000      -1.027798       -27.9678 
  26   2.0000      -0.863848       -23.5065 
  27   2.0000      -0.860901       -23.4263 
  28   2.0000      -0.814476       -22.1630 
  29   2.0000      -0.781194       -21.2574 
  30   2.0000      -0.761677       -20.7263 
  31   2.0000      -0.752178       -20.4678 
  32   2.0000      -0.744158       -20.2496 
  33   2.0000      -0.731385       -19.9020 
  34   2.0000      -0.700373       -19.0581 
  35   2.0000      -0.675873       -18.3914 
  36   2.0000      -0.675623       -18.3846 
  37   2.0000      -0.640007       -17.4155 
  38   2.0000      -0.618083       -16.8189 
  39   2.0000      -0.610697       -16.6179 
  40   2.0000      -0.599274       -16.3071 
  41   2.0000      -0.566673       -15.4200 
  42   2.0000      -0.548040       -14.9129 
  43   2.0000      -0.545600       -14.8465 
  44   2.0000      -0.534975       -14.5574 
  45   2.0000      -0.506081       -13.7712 
  46   2.0000      -0.492991       -13.4150 
  47   2.0000      -0.483755       -13.1636 
  48   2.0000      -0.474154       -12.9024 
  49   2.0000      -0.472813       -12.8659 
  50   2.0000      -0.469043       -12.7633 
  51   2.0000      -0.451235       -12.2787 
  52   2.0000      -0.448998       -12.2179 
  53   2.0000      -0.444667       -12.1000 
  54   2.0000      -0.437612       -11.9080 
  55   2.0000      -0.433648       -11.8001 
  56   2.0000      -0.430670       -11.7191 
  57   2.0000      -0.424900       -11.5621 
  58   2.0000      -0.421898       -11.4804 
  59   2.0000      -0.416812       -11.3420 
  60   2.0000      -0.413528       -11.2527 
  61   2.0000      -0.399994       -10.8844 
  62   2.0000      -0.395455       -10.7609 
  63   2.0000      -0.394811       -10.7434 
  64   2.0000      -0.385653       -10.4942 
  65   2.0000      -0.383594       -10.4381 
  66   2.0000      -0.372178       -10.1275 
  67   2.0000      -0.367310        -9.9950 
  68   2.0000      -0.362238        -9.8570 
  69   2.0000      -0.361283        -9.8310 
  70   2.0000      -0.355512        -9.6740 
  71   2.0000      -0.350649        -9.5416 
  72   2.0000      -0.331199        -9.0124 
  73   2.0000      -0.328988        -8.9522 
  74   2.0000      -0.327223        -8.9042 
  75   2.0000      -0.325508        -8.8575 
  76   2.0000      -0.314333        -8.5534 
  77   2.0000      -0.269112        -7.3229 
  78   2.0000      -0.267069        -7.2673 
  79   2.0000      -0.260542        -7.0897 
  80   2.0000      -0.255391        -6.9495 
  81   2.0000      -0.248155        -6.7526 
  82   2.0000      -0.234673        -6.3858 
  83   0.0000      -0.061261        -1.6670 
  84   0.0000      -0.055163        -1.5011 
  85   0.0000      -0.013938        -0.3793 
  86   0.0000      -0.008250        -0.2245 
  87   0.0000       0.036813         1.0017 
  88   0.0000       0.045478         1.2375 
  89   0.0000       0.062255         1.6940 
  90   0.0000       0.074138         2.0174 
  91   0.0000       0.081455         2.2165 
  92   0.0000       0.093449         2.5429 
  93   0.0000       0.097683         2.6581 
*Only the first 10 virtual orbitals were printed.

                    ********************************
                    * MULLIKEN POPULATION ANALYSIS *
                    ********************************

-----------------------
MULLIKEN ATOMIC CHARGES
-----------------------
   0 C :    0.113732
   1 C :   -0.269605
   2 C :    0.089790
   3 C :    0.091334
   4 C :    0.115531
   5 C :   -0.042275
   6 C :   -0.021881
   7 C :    0.035637
   8 C :    0.014906
   9 C :   -0.039837
  10 C :    0.060860
  11 O :   -0.243395
  12 C :    0.090917
  13 C :    0.015485
  14 O :   -0.246080
  15 C :    0.042095
  16 C :   -0.013291
  17 C :   -0.082504
  18 C :    0.249463
  19 O :   -0.317602
  20 C :    0.180113
  21 C :   -0.023106
  22 C :   -0.001797
  23 H :    0.007837
  24 H :    0.003914
  25 H :    0.007962
  26 H :    0.006391
  27 H :    0.006088
  28 H :    0.005598
  29 H :    0.005591
  30 H :    0.005615
  31 H :    0.006006
  32 H :   -0.006715
  33 H :   -0.022458
  34 H :   -0.011187
  35 H :   -0.019724
  36 H :    0.069870
  37 H :    0.039755
  38 H :   -0.012619
  39 H :   -0.004650
  40 H :    0.043845
  41 H :    0.038795
  42 H :    0.038866
  43 H :   -0.013808
  44 H :    0.006540
Sum of atomic charges:    0.0000000

--------------------------------
MULLIKEN REDUCED ORBITAL CHARGES
--------------------------------
  0 C s       :     2.922241  s :     2.922241
      pz      :     0.972187  p :     2.935176
      px      :     0.980442
      py      :     0.982547
      dz2     :     0.006266  d :     0.028851
      dxz     :     0.007230
      dyz     :     0.004834
      dx2y2   :     0.007635
      dxy     :     0.002886

  1 C s       :     3.198931  s :     3.198931
      pz      :     1.015678  p :     3.018404
      px      :     0.982278
      py      :     1.020448
      dz2     :     0.010500  d :     0.052270
      dxz     :     0.011085
      dyz     :     0.010016
      dx2y2   :     0.012173
      dxy     :     0.008496

  2 C s       :     2.958447  s :     2.958447
      pz      :     0.994782  p :     2.922699
      px      :     0.984140
      py      :     0.943777
      dz2     :     0.004654  d :     0.029065
      dxz     :     0.005750
      dyz     :     0.006724
      dx2y2   :     0.006852
      dxy     :     0.005084

  3 C s       :     2.957496  s :     2.957496
      pz      :     0.978533  p :     2.922095
      px      :     0.965773
      py      :     0.977790
      dz2     :     0.007078  d :     0.029074
      dxz     :     0.005624
      dyz     :     0.004337
      dx2y2   :     0.008698
      dxy     :     0.003336

  4 C s       :     3.070651  s :     3.070651
      pz      :     0.923322  p :     2.770790
      px      :     0.927554
      py      :     0.919915
      dz2     :     0.010275  d :     0.043029
      dxz     :     0.011746
      dyz     :     0.006294
      dx2y2   :     0.007296
      dxy     :     0.007417

  5 C s       :     3.258386  s :     3.258386
      pz      :     0.933074  p :     2.748613
      px      :     0.857742
      py      :     0.957797
      dz2     :     0.008473  d :     0.035277
      dxz     :     0.010947
      dyz     :     0.005356
      dx2y2   :     0.004803
      dxy     :     0.005699

  6 C s       :     3.276581  s :     3.276581
      pz      :     0.824592  p :     2.709339
      px      :     0.956359
      py      :     0.928389
      dz2     :     0.007859  d :     0.035961
      dxz     :     0.009829
      dyz     :     0.004031
      dx2y2   :     0.006715
      dxy     :     0.007526

  7 C s       :     3.097366  s :     3.097366
      pz      :     0.901326  p :     2.827440
      px      :     0.926002
      py      :     1.000112
      dz2     :     0.009126  d :     0.039558
      dxz     :     0.012160
      dyz     :     0.006210
      dx2y2   :     0.006846
      dxy     :     0.005216

  8 C s       :     3.233266  s :     3.233266
      pz      :     0.933484  p :     2.715706
      px      :     0.855834
      py      :     0.926389
      dz2     :     0.008879  d :     0.036122
      dxz     :     0.010717
      dyz     :     0.005875
      dx2y2   :     0.004637
      dxy     :     0.006013

  9 C s       :     3.256614  s :     3.256614
      pz      :     0.833472  p :     2.748157
      px      :     0.937763
      py      :     0.976922
      dz2     :     0.008118  d :     0.035067
      dxz     :     0.009424
      dyz     :     0.004195
      dx2y2   :     0.006664
      dxy     :     0.006666

 10 C s       :     3.134345  s :     3.134345
      pz      :     0.908225  p :     2.710686
      px      :     0.976929
      py      :     0.825532
      dz2     :     0.022009  d :     0.094110
      dxz     :     0.033039
      dyz     :     0.017978
[...]
      py      :     1.037111
      dz2     :     0.009146  d :     0.091124
      dxz     :     0.014386
      dyz     :     0.017596
      dx2y2   :     0.024315
      dxy     :     0.025681

 23 H s       :     0.911732  s :     0.911732
      pz      :     0.012314  p :     0.065015
      px      :     0.013762
      py      :     0.038939

 24 H s       :     0.909463  s :     0.909463
      pz      :     0.018659  p :     0.064555
      px      :     0.033635
      py      :     0.012261

 25 H s       :     0.911630  s :     0.911630
      pz      :     0.021694  p :     0.065004
      px      :     0.025211
      py      :     0.018099

 26 H s       :     0.912514  s :     0.912514
      pz      :     0.034180  p :     0.065186
      px      :     0.012719
      py      :     0.018287

 27 H s       :     0.911923  s :     0.911923
      pz      :     0.019230  p :     0.064405
      px      :     0.025207
      py      :     0.019968

 28 H s       :     0.910991  s :     0.910991
      pz      :     0.019238  p :     0.064455
      px      :     0.032986
      py      :     0.012230

 29 H s       :     0.912066  s :     0.912066
      pz      :     0.012446  p :     0.064394
      px      :     0.013447
      py      :     0.038501

 30 H s       :     0.911012  s :     0.911012
      pz      :     0.018668  p :     0.064458
      px      :     0.033773
      py      :     0.012017

 31 H s       :     0.912536  s :     0.912536
      pz      :     0.035878  p :     0.065157
      px      :     0.013035
      py      :     0.016244

 32 H s       :     0.897448  s :     0.897448
      pz      :     0.017098  p :     0.068720
      px      :     0.032295
      py      :     0.019328

 33 H s       :     0.898974  s :     0.898974
      pz      :     0.040861  p :     0.070206
      px      :     0.012103
      py      :     0.017241

 34 H s       :     0.893751  s :     0.893751
      pz      :     0.017739  p :     0.069121
      px      :     0.032147
      py      :     0.019235

 35 H s       :     0.895324  s :     0.895324
      pz      :     0.039938  p :     0.069946
      px      :     0.011308
      py      :     0.018700

 36 H s       :     0.872967  s :     0.872967
      pz      :     0.020755  p :     0.070608
      px      :     0.013789
      py      :     0.036063

 37 H s       :     0.872317  s :     0.872317
      pz      :     0.030871  p :     0.068843
      px      :     0.023258
      py      :     0.014715

 38 H s       :     0.895588  s :     0.895588
      pz      :     0.012706  p :     0.070050
      px      :     0.017318
      py      :     0.040025

 39 H s       :     0.887573  s :     0.887573
      pz      :     0.025660  p :     0.071199
      px      :     0.019474
      py      :     0.026065

 40 H s       :     0.902533  s :     0.902533
      pz      :     0.013339  p :     0.063212
      px      :     0.030672
      py      :     0.019201

 41 H s       :     0.909967  s :     0.909967
      pz      :     0.032720  p :     0.064978
      px      :     0.018659
      py      :     0.013599

 42 H s       :     0.909950  s :     0.909950
      pz      :     0.016674  p :     0.064986
      px      :     0.014998
      py      :     0.033314

 43 H s       :     0.891521  s :     0.891521
      pz      :     0.013842  p :     0.069239
      px      :     0.016130
      py      :     0.039266

 44 H s       :     0.889658  s :     0.889658
      pz      :     0.024042  p :     0.068991
      px      :     0.018738
      py      :     0.026211



                      *****************************
                      * MAYER POPULATION ANALYSIS *
                      *****************************

  NA   - Mulliken gross atomic population
  ZA   - Total nuclear charge
  QA   - Mulliken gross atomic charge
  VA   - Mayer's total valence
  BVA  - Mayer's bonded valence
  FA   - Mayer's free valence

  ATOM       NA         ZA         QA         VA         BVA        FA
  0 C      5.9137     6.0000     0.0863     3.9728     3.9728     0.0000
  1 C      6.2507     6.0000    -0.2507     4.1902     4.1902     0.0000
  2 C      5.9344     6.0000     0.0656     3.9223     3.9223     0.0000
  3 C      5.9346     6.0000     0.0654     3.9219     3.9219    -0.0000
  4 C      5.9005     6.0000     0.0995     3.7215     3.7215     0.0000
  5 C      6.0447     6.0000    -0.0447     3.8069     3.8069    -0.0000
  6 C      6.0243     6.0000    -0.0243     3.8437     3.8437     0.0000
  7 C      5.9720     6.0000     0.0280     3.6350     3.6350     0.0000
  8 C      6.0068     6.0000    -0.0068     3.7863     3.7863    -0.0000
  9 C      6.0433     6.0000    -0.0433     3.8840     3.8840    -0.0000
 10 C      5.9313     6.0000     0.0687     4.2060     4.2060     0.0000
 11 O      8.2443     8.0000    -0.2443     2.2661     2.2661     0.0000
 12 C      5.9227     6.0000     0.0773     3.7094     3.7094    -0.0000
 13 C      5.9753     6.0000     0.0247     4.2259     4.2259    -0.0000
 14 O      8.2515     8.0000    -0.2515     2.2590     2.2590     0.0000
 15 C      5.9610     6.0000     0.0390     3.6313     3.6313    -0.0000
 16 C      6.0203     6.0000    -0.0203     3.8357     3.8357    -0.0000
 17 C      6.0851     6.0000    -0.0851     3.7752     3.7752     0.0000
 18 C      5.7629     6.0000     0.2371     3.8672     3.8672    -0.0000
 19 O      8.3170     8.0000    -0.3170     2.2243     2.2243     0.0000
 20 C      5.8332     6.0000     0.1668     3.9026     3.9026    -0.0000
 21 C      6.0295     6.0000    -0.0295     3.8057     3.8057     0.0000
 22 C      6.0151     6.0000    -0.0151     3.8265     3.8265    -0.0000
 23 H      0.9860     1.0000     0.0140     0.9897     0.9897     0.0000
 24 H      0.9901     1.0000     0.0099     0.9918     0.9918     0.0000
 25 H      0.9857     1.0000     0.0143     0.9896     0.9896     0.0000
 26 H      0.9870     1.0000     0.0130     0.9977     0.9977     0.0000
 27 H      0.9881     1.0000     0.0119     0.9920     0.9920     0.0000
 28 H      0.9881     1.0000     0.0119     0.9941     0.9941     0.0000
 29 H      0.9884     1.0000     0.0116     0.9920     0.9920     0.0000
 30 H      0.9880     1.0000     0.0120     0.9940     0.9940     0.0000
 31 H      0.9870     1.0000     0.0130     0.9977     0.9977    -0.0000
 32 H      0.9954     1.0000     0.0046     0.9865     0.9865     0.0000
 33 H      1.0112     1.0000    -0.0112     1.0106     1.0106     0.0000
 34 H      0.9964     1.0000     0.0036     0.9869     0.9869    -0.0000
 35 H      1.0073     1.0000    -0.0073     0.9981     0.9981    -0.0000
 36 H      0.9302     1.0000     0.0698     0.9887     0.9887    -0.0000
 37 H      0.9500     1.0000     0.0500     1.0151     1.0151     0.0000
 38 H      1.0030     1.0000    -0.0030     1.0113     1.0113    -0.0000
 39 H      0.9935     1.0000     0.0065     0.9987     0.9987     0.0000
 40 H      0.9507     1.0000     0.0493     0.9888     0.9888    -0.0000
 41 H      0.9566     1.0000     0.0434     0.9865     0.9865    -0.0000
 42 H      0.9566     1.0000     0.0434     0.9866     0.9866    -0.0000
 43 H      1.0027     1.0000    -0.0027     0.9966     0.9966     0.0000
 44 H      0.9838     1.0000     0.0162     0.9903     0.9903    -0.0000

  Mayer bond orders larger than 0.100000
B(  0-C ,  1-C ) :   1.0916 B(  0-C , 23-H ) :   0.9477 B(  0-C , 24-H ) :   0.9575 
B(  0-C , 25-H ) :   0.9478 B(  1-C ,  2-C ) :   1.0376 B(  1-C ,  3-C ) :   1.0372 
B(  1-C ,  4-C ) :   0.9321 B(  2-C , 26-H ) :   0.9618 B(  2-C , 27-H ) :   0.9635 
B(  2-C , 28-H ) :   0.9629 B(  3-C , 29-H ) :   0.9635 B(  3-C , 30-H ) :   0.9630 
B(  3-C , 31-H ) :   0.9619 B(  4-C ,  5-C ) :   1.3295 B(  4-C ,  9-C ) :   1.4118 
B(  5-C ,  6-C ) :   1.3957 B(  5-C , 32-H ) :   0.9950 B(  6-C ,  7-C ) :   1.3274 
B(  6-C , 33-H ) :   0.9908 B(  7-C ,  8-C ) :   1.3402 B(  7-C , 10-C ) :   0.9530 
B(  8-C ,  9-C ) :   1.3552 B(  8-C , 34-H ) :   0.9789 B(  9-C , 35-H ) :   0.9810 
B( 10-C , 11-O ) :   2.1246 B( 10-C , 12-C ) :   0.9865 B( 12-C , 13-C ) :   0.9987 
B( 12-C , 36-H ) :   0.8904 B( 12-C , 37-H ) :   0.8775 B( 13-C , 14-O ) :   2.1026 
B( 13-C , 15-C ) :   0.9941 B( 15-C , 16-C ) :   1.3365 B( 15-C , 22-C ) :   1.3117 
B( 16-C , 17-C ) :   1.3629 B( 16-C , 38-H ) :   0.9913 B( 17-C , 18-C ) :   1.2748 
B( 17-C , 39-H ) :   0.9965 B( 18-C , 19-O ) :   1.1661 B( 18-C , 21-C ) :   1.3140 
B( 19-O , 20-C ) :   0.9334 B( 20-C , 40-H ) :   0.9764 B( 20-C , 41-H ) :   0.9686 
B( 20-C , 42-H ) :   0.9687 B( 21-C , 22-C ) :   1.4079 B( 21-C , 43-H ) :   0.9916 
B( 22-C , 44-H ) :   0.9804 

-------
TIMINGS
-------

Total SCF time: 0 days 0 hours 1 min 22 sec 

Total time                  ....      82.758 sec
Sum of individual times     ....      77.826 sec  ( 94.0%)

SCF preparation             ....       1.116 sec  (  1.3%)
Fock matrix formation       ....      75.517 sec  ( 91.3%)
  Startup                   ....       0.020 sec  (  0.0% of F)
  Split-RI-J                ....       5.962 sec  (  7.9% of F)
  Chain of spheres X        ....      58.348 sec  ( 77.3% of F)
  XC integration            ....       6.862 sec  (  9.1% of F)
    Basis function eval.    ....       2.363 sec  ( 34.4% of XC)
    Density eval.           ....       1.588 sec  ( 23.1% of XC)
    XC-Functional eval.     ....       0.211 sec  (  3.1% of XC)
    XC-Potential eval.      ....       2.050 sec  ( 29.9% of XC)
  CPCM terms                ....       8.523 sec  ( 11.3% of F)
Diagonalization             ....       0.000 sec  (  0.0%)
Density matrix formation    ....       0.159 sec  (  0.2%)
Total Energy calculation    ....       0.092 sec  (  0.1%)
Population analysis         ....       0.233 sec  (  0.3%)
Orbital Transformation      ....       0.064 sec  (  0.1%)
Orbital Orthonormalization  ....       0.000 sec  (  0.0%)
DIIS solution               ....       0.104 sec  (  0.1%)
SOSCF solution              ....       0.541 sec  (  0.7%)
Finished LeanSCF after  83.4 sec

Maximum memory used throughout the entire LEANSCF-calculation: 74.4 MB

-------------------------   --------------------
FINAL SINGLE POINT ENERGY      -999.735125378396
-------------------------   --------------------

                                *** OPTIMIZATION RUN DONE ***



           ************************************************************
           *        Program running with 4 parallel MPI-processes     *
           *              working on a common directory               *
           ************************************************************

------------------------------------------------------------------------------
                              ORCA PROPERTY CALCULATIONS
------------------------------------------------------------------------------

GBWName                                 ... opt.gbw
Number of atoms                         ...     45
Number of basis functions               ...    432
Max core memory                         ...   2500 MB

Electric properties:
Dipole moment                           ... YES
Quadrupole moment                       ...  NO
Static polarizability (Dipole/Dipole)   ...  NO
Static polarizability (Dipole/Quad.)    ...  NO
Static polarizability (Quad./Quad.)     ...  NO
Static polarizability (Velocity)        ...  NO
Static hyperpolarizability              ...  NO

Atomic electric properties:
Dipole moment                           ...  NO
Quadrupole moment                       ...  NO
Static polarizability                   ...  NO

Choice of electric origin               ... Center of mass
Position of electric origin             ...     1.082746     0.052108     0.557892

General magnetic properties:
Magnetizability                         ...  NO

EPR properties:
g-Tensor (aka g-matrix)                 ...  NO
Zero-Field splitting spin-orbit         ...  NO
Zero-field splitting spin-spin          ...  NO
Hyperfine couplings                     ...  NO (   0 nuclei)
Quadrupole couplings                    ...  NO (   0 nuclei)
Contact density                         ...  NO (   0 nuclei)

NMR properties:
Chemical shifts                         ...  NO (   0 nuclei)
Spin-rotation constants                 ...  NO (   0 nuclei)
Spin-spin couplings                     ...  NO (   0 nuclei,    0 pairs)

Choice of magnetic origin               ... GIAO
Position of magnetic origin             ...     0.000000     0.000000     0.000000

Properties with geometric perturbations:
SCF Hessian                             ...  NO
IR spectrum                             ...  NO
VCD spectrum                            ...  NO
X-ray spectroscopy properties:
SCF XES/XAS/RIXS spectra                ...  NO

SCF SOC stabilization energy            ...  NO
Diagonal Born-Oppenheimer correction    ...  NO

-------------
DIPOLE MOMENT
-------------

Method             : SCF
Type of density    : Electron Density
Multiplicity       :   1
Irrep              :   0
Energy             :  -999.7351253783958782 Eh
Basis              : AO
                                X                 Y                 Z
Electronic contribution:     24.717877529      -0.343121203      12.151332987
Nuclear contribution   :    -23.897467821      -1.001411098     -14.412977254
                        -----------------------------------------
Total Dipole Moment    :      0.820409708      -1.344532301      -2.261644268
                        -----------------------------------------
Magnitude (a.u.)       :      2.756061318
Magnitude (Debye)      :      7.005351147



--------------------
Rotational spectrum 
--------------------
 
Rotational constants in cm-1:             0.018746             0.002939             0.002713 
Rotational constants in MHz :           561.979303            88.106944            81.328498 

Dipole components along the rotational axes: 
x,y,z [a.u.] :     1.146392    -2.303720    -0.987184 
x,y,z [Debye]:     2.913898    -5.855591    -2.509223 

 

Dipole moment calculation done in   0.0 sec 

Maximum memory used throughout the entire PROP-calculation: 23.1 MB

--------------------------------
SUGGESTED CITATIONS FOR THIS RUN
--------------------------------

Below you find a list of papers that are relevant to this ORCA run
We neither can nor want to force you to cite these papers, but we appreciate if you do
You receive ORCA, which is the product of decades of hard work by many enthusiastic individuals, for free
The only thing we kindly ask in return is that you cite our papers,
We deeply appreciate it, if you show your appreciation for ORCA by not just citing the generic ORCA reference.

Please note that relegating all ORCA citations to the supporting information does *not* help us.
SI sections are not indexed - citations you put there will not count into any citation statistics
But we need these citations in order to attract the funding resources that allow us to do what we are doing

Therefore, if you are a happy ORCA user, please consider citing a few of the papers listed below in the main body of your paper

In addition to the list printed below, the program has created the file opt.bibtex that contains the list in bibtex format
You can import this file easily into all common literature databanks and citation aid programs

It goes without saying that in many instances, there are alternative algorithms to achieve similar
results as the ones you have gotten from ORCA. It is, of course, also the case that in some instances
ORCA just re-implements algorithms worked out by others. We are fully aware of that and we are also
fully appreciative of our colleagues work. Hence this citation list should not be read as indicating
that the listed papers, which are focused on our own work, are the only ones worth citing. It simply
meant to make it easier for users to cite ORCA specific papers. It is not a substitute for doing your
own literature research and citing the relevant literature in a scientifically appropriate manner.

List of essential papers. We consider these as the minimum necessary citations

  1. Neese, F.
     Software update: the ORCA program system, version 6.0
     WIRES Comput. Molec. Sci. 2025 15(1), e70019
     doi.org/10.1002/wcms.70019

List of papers to cite with high priority. The work reported in these papers was absolutely
necessary for this run to complete.
Our perspective: the developers of density functionals and basis sets usually get cited in chemistry papers
Good! But without the algorithms to do something with them, the functionals or basis sets would not do anything.
Hence, in our opinion, the algorithm design and method developments papers are equally worthy of getting cited

  1. Neese, F.
     An improvement of the resolution of the identity approximation for the formation of the Coulomb matrix
     J. Comp. Chem. 2003 24(14), 1740-1747
     doi.org/10.1002/jcc.10318
  2. Neese, F.; Wennmohs, F.; Hansen, A.; Becker, U.
     Efficient, approximate and parallel Hartree-Fock and hybrid DFT calculations. A 'chain-of-spheres' algorithm for the Hartree-Fock exchange
     Chem. Phys. 2009 356(1-3), 98-109
     doi.org/10.1016/j.chemphys.2008.10.036
  3. Garcia-Rates, M.; Neese, F.
     Effect of the Solute Cavity on the Solvation Energy and its Derivatives within the Framework of the Gaussian Charge Scheme
     J. Comput. Chem. 2020 41 , 922-939
     doi.org/10.1002/jcc.26139
  4. Helmich-Paris, B.; de Souza, B.; Neese, F.; Izsák, R.
     An improved chain of spheres for exchange algorithm
     J. Chem. Phys. 2021 155(10), 104109
     doi.org/10.1063/5.0058766
  5. Neese, F.
     The SHARK Integral Generation and Digestion System
     J. Comp. Chem. 2022 44(3), 381
     doi.org/10.1002/jcc.26942

List of suggested additional citations. These are papers that are important in the 'surrounding' of 
of this run, or papers that preceded the highly important papers. If you like your results we are grateful for a citation.

  1. Izsak, R.; Neese, F.
     An overlap fitted chain of spheres exchange method
     J. Chem. Phys. 2011 135 , 144105
     doi.org/10.1063/1.3646921
  2. Izsak, R.; Hansen, A.; Neese, F.
     The resolution of identity and chain of spheres approximations for the LPNO-CCSD singles Fock term
     Molec. Phys. 2012 110 , 2413-2417
     doi.org/10.1080/00268976.2012.687466
  3. Neese, F.
     The ORCA program system
     WIRES Comput. Molec. Sci. 2012 2(1), 73-78
     doi.org/10.1002/wcms.81
  4. Izsak, R.; Neese, F.; Klopper, W.
     Robust fitting techniques in the chain of spheres approximation to the Fock exchange: The role of the complementary space
     J. Chem. Phys. 2013 139 , 
     doi.org/10.1063/1.4819264
  5. Neese, F.
     Software update: the ORCA program system, version 4.0
     WIRES Comput. Molec. Sci. 2018 8(1), 1-6
     doi.org/10.1002/wcms.1327
  6. Neese, F.; Wennmohs, F.; Becker, U.; Riplinger, C.
     The ORCA quantum chemistry program package
     J. Chem. Phys. 2020 152(22), 224108
     doi.org/10.1063/5.0004608
  7. Neese, F.
     Software update: The ORCA program system—Version 5.0
     WIRES Comput. Molec. Sci. 2022 12(1), e1606
     doi.org/10.1002/wcms.1606

List of optional additional citations

  1. Neese, F.
     Approximate second-order SCF convergence for spin unrestricted wavefunctions
     Chem. Phys. Lett. 2000 325(1-3), 93-98
     doi.org/10.1016/s0009-2614(00)00662-x

Timings for individual modules:

Sum of individual times          ...     2182.310 sec (=  36.372 min)
Startup calculation              ...       65.217 sec (=   1.087 min)   3.0 %
SCF iterations                   ...     1404.022 sec (=  23.400 min)  64.3 %
Property calculations            ...        0.292 sec (=   0.005 min)   0.0 %
SCF Gradient evaluation          ...      712.347 sec (=  11.872 min)  32.6 %
Geometry relaxation              ...        0.432 sec (=   0.007 min)   0.0 %
                             ****ORCA TERMINATED NORMALLY****
TOTAL RUN TIME: 0 days 0 hours 36 minutes 27 seconds 552 msec
