
                                 *****************
                                 * O   R   C   A *
                                 *****************

                                            #,                                       
                                            ###                                      
                                            ####                                     
                                            #####                                    
                                            ######                                   
                                           ########,                                 
                                     ,,################,,,,,                         
                               ,,#################################,,                 
                          ,,##########################################,,             
                       ,#########################################, ''#####,          
                    ,#############################################,,   '####,        
                  ,##################################################,,,,####,       
                ,###########''''           ''''###############################       
              ,#####''   ,,,,##########,,,,          '''####'''          '####       
            ,##' ,,,,###########################,,,                        '##       
           ' ,,###''''                  '''############,,,                           
         ,,##''                                '''############,,,,        ,,,,,,###''
      ,#''                                            '''#######################'''  
     '                                                          ''''####''''         
             ,#######,   #######,   ,#######,      ##                                
            ,#'     '#,  ##    ##  ,#'     '#,    #''#        ,####,    ,#,          
            ##       ##  ##   ,#'  ##            #'  '#       #'       ,# #          
            ##       ##  #######   ##           ,######,      #####,      #          
            '#,     ,#'  ##    ##  '#,     ,#' ,#      #,     #,   #      #          
             '#######'   ##     ##  '#######'  #'      '#     '####' #    #          



                #########################################################
                #                        -***-                          #
                #          Department of theory and spectroscopy        #
                #                                                       #
                #                      Frank Neese                      #
                #                                                       #
                #     Directorship, Architecture, Infrastructure        #
                #                    SHARK, DRIVERS                     #
                #        Core code/Algorithms in most modules           #
                #                                                       #
                #        Max Planck Institute fuer Kohlenforschung      #
                #                Kaiser Wilhelm Platz 1                 #
                #                 D-45470 Muelheim/Ruhr                 #
                #                      Germany                          #
                #                                                       #
                #                  All rights reserved                  #
                #                        -***-                          #
                #########################################################


                         Program Version 6.1.1  -  RELEASE   -


 With contributions from (in alphabetic order):
[Max-Planck-Institut fuer Kohlenforschung]                               
  Daniel Aravena         : Magnetic Suceptibility                        
  Michael Atanasov       : Ab Initio Ligand Field Theory (pilot matlab implementation)
  Alexander A. Auer      : GIAO ZORA, VPT2 properties, NMR spectrum      
  Ute Becker             : All parallelization in ORCA, NUMFREQ, NUMCALC 
  Giovanni Bistoni       : ED, misc. LED, open-shell LED, HFLD           
  Dmytro Bykov           : pre 5.0 version of the SCF Hessian            
  Marcos Casanova-Páez   : Triplet and SCS-CIS(D). UHF-(DLPNO)-IP/EA/STEOM-CCSD. UHF-CVS-IP/STEOM-CCSD   
  Vijay G. Chilkuri      : MRCI spin determinant printing, contributions to CSF-ICE 
  Pauline Colinet        : FMM embedding                                 
  Dipayan Datta          : RHF DLPNO-CCSD density                        
  Achintya Kumar Dutta   : EOM-CC, STEOM-CC                              
  Nicolas Foglia         : Exact transition moments, OPA infrastructure, MCD improvements    
  Dmitry Ganyushin       : Spin-Orbit,Spin-Spin,Magnetic field MRCI      
  Miquel Garcia-Rates    : C-PCM and meta-GGA Hessian, CCSD/C-PCM, Gaussian charge scheme 
  Tiago L. C. Gouveia    : GS-ROHF, GS-ROCIS                             
  Yang Guo               : DLPNO-NEVPT2, F12-NEVPT2, CIM, IAO-localization        
  Andreas Hansen         : Spin unrestricted coupled pair/coupled cluster methods 
  Ingolf Harden          : AUTO-CI MPn and infrastructure                
  Benjamin Helmich-Paris : MC-RPA, TRAH-(SCF,CASSCF), AVAS, COSX integrals, SCF dyn. polar., MC-PDFT, srDFT 
  Lee Huntington         : MR-EOM, pCC                                   
  Robert Izsak           : Overlap fitted RIJCOSX, COSX-SCS-MP3, EOM     
  Riya Kayal             : Wick's Theorem for AUTO-CI, AUTO-CI UHF-CCSDT 
  Emily Kempfer          : AUTO-CI RHF CISDT and CCSDT, approximate NEVPT4
  Christian Kollmar      : KDIIS, OOCD, Brueckner-CCSD(T), CCSD density, CASPT2, CASPT2-K, improved NEVPT2 
  Axel Koslowski         : Symmetry handling                             
  Simone Kossmann        : meta-GGA functionals, TD-DFT gradient, OOMP2, (MP2 Hessian; deprecated post 5.0) 
  Lucas Lang             : DCDCAS, Hyperfine gauge corrections, ICE-SOC+SSC
  Marvin Lechner         : AUTO-CI (C++ implementation), FIC-MRCC        
  Spencer Leger          : CASSCF response                               
  Dagmar Lenk            : GEPOL surface, SMD, ORCA-2-JSON               
  Dimitrios Liakos       : Extrapolation schemes; Compound Job, Property file
  Dimitrios Manganas     : Further ROCIS development; embedding schemes. LFT, Crystal Embedding 
  Dimitrios Pantazis     : SARC Basis sets                               
  Anastasios Papadopoulos: AUTO-CI, single reference methods and gradients 
  Taras Petrenko         : pre 6.0 DFT Hessian and TD-DFT gradient,  ECA, NRVS 
  Petra Pikulova         : Analytic Raman intensities                    
  Peter Pinski           : DLPNO-MP2, DLPNO-MP2 Gradient                 
  Shashank Vittal Rao    : ES-AILFT, MagRelax                            
  Christoph Reimann      : Effective Core Potentials                     
  Marius Retegan         : Local ZFS, SOC                                
  Christoph Riplinger    : Optimizer, TS searches, QM/MM, DLPNO-CCSD(T), (RO)-DLPNO pert. Triples 
  Michael Roemelt        : Original ROCIS implementation, recursive CI coupling coefficients
  Masaaki Saitow         : Open-shell DLPNO-CCSD energy and density      
  Barbara Sandhoefer     : DKH picture change effects                    
  Yorick L. A. Schmerwitz: GMF and freeze-and-release deltaSCF, NEB S-IDPP initial path                    
  Kantharuban Sivalingam : CASSCF convergence/infrastructure, NEVPT2, NEVPT3, NEVPT4(SD), FIC-MRCI and CEPA variants
  Bernardo de Souza      : ESD, SOC TD-DFT                               
  Georgi L. Stoychev     : AutoAux, RI-MP2 NMR, DLPNO-MP2 response, X2C  
  Van Anh Tran           : RI-MP2 g-tensors                              
  Willem Van den Heuvel  : Paramagnetic NMR                              
  Zikuan Wang            : NOTCH, Electric field optimization            
  Frank Wennmohs         : Technical directorship and infrastructure     
  Hang Xu                : AUTO-CI-Response properties                   
                                                                         
[FACCTs GmbH]                                                            
  Markus Bursch, Nicolas Foglia, Miquel Garcia-Rates, Ingolf Harden, Hagen Neugebauer, Anastasios Papadopoulos, 
  Christoph Riplinger, Bernardo de Souza, Georgi L. Stoychev                                                    
                                                                 
  APM, various basis sets, CI-OPT, improved COSX, DLPNO-Multilevel,           
  DOCKER, DRACO, updates on ESD, Fragmentator, GOAT, IRC, LR-CPCM, L-BFGS, MBIS, meta-GGA TD-DFT gradient, ML-optimized integration grids, 
  MM, NACMEs, nearIR, NEB, NEB-TS, NL-DFT gradient (VV10), 2- and 3-layer-ONIOM, interface openCOSMO-RS, QMMM,   
  Crystal-QMMM, RESP, rigid body optimization, SF, symmetry and pop. for TD-DFT, various functionals, SOLVATOR                                   
                                                                         
[Other institutions]                                                     
  V. Asgeirsson          : NEB                                           
  Christoph Bannwarth    : sTDA-DFT, sTD-DFT, PBEh-3c, B97-3c, D3        
  Giovanni Bistoni       : ETS/NOCV, ADLD/ADEX, COVALED                  
  Martin Brehm           : Molecular dynamics                            
  Ronald Cardenas        : ETS/NOCV                                      
  Martina Colucci        : COVALED                                       
  Sebastian Ehlert       : rSCAN, r2SCAN, r2SCAN-3c, D4, dhf basis sets  
  Marvin Friede          : D4 for Fr, Ra, Ac-Lr                          
  Lars Goerigk           : TD-DFT with DH, B97 family of functionals     
  Stefan Grimme          : VdW corrections, initial TS optimization, DFT functionals, gCP, sTDA/sTD-DF 
  Waldemar Hujo          : DFT-NL                                        
  H. Jonsson             : NEB                                           
  Holger Kruse           : gCP                                           
  Marcel Mueller         : wB97X-3c, vDZP basis set                      
  Hagen Neugebauer       : wr2SCAN, Native XTB                           
  Gianluca Regni         : ADLD/ADEX                                     
  Tobias Risthaus        : pre 6.0 range-separated hybrid DFT and stability analysis
  Lukas Wittmann         : regularized MP2, r2SCAN double-hybrids, wr2SCAN        
                                                                         
We gratefully acknowledge several colleagues who have allowed us to      
interface, adapt or use parts of their codes:                            
  Ed Valeev, F. Pavosevic, A. Kumar             : LibInt (2-el integral package), F12 methods 
  Garnet Chan, S. Sharma, J. Yang, R. Olivares  : DMRG                   
  Ulf Ekstrom                                   : XCFun DFT Library      
  Mihaly Kallay                                 : mrcc  (arbitrary order and MRCC methods)
  Frank Weinhold                                : gennbo (NPA and NBO analysis)           
  Simon Mueller                                 : openCOSMO-RS                            
  Christopher J. Cramer and Donald G. Truhlar   : smd solvation model                     
  S Lehtola, MJT Oliveira, MAL Marques          : LibXC Library                           
  Liviu Ungur et al                             : ANISO software                          


 Your calculation uses the libint2 library for the computation of 2-el integrals
 For citations please refer to: http://libint.valeyev.net

 Your ORCA version has been built with support for libXC version: 7.0.0
 For citations please refer to: https://libxc.gitlab.io

 This ORCA versions uses:
   CBLAS   interface :  Fast vector & matrix operations
   LAPACKE interface :  Fast linear algebra routines
   Shared memory     :  Shared parallel matrices


  ***********************************
  * Starting time: Wed Jul 22 09:49:17 2026
  * Host name:     DESKTOP-19Q153E
  * Process ID:    25636
  * Working dir.:  C:\Users\ysm04\Documents\etc\uv_vis\calculations\02_tddft_orca\enolA\enolA_c000\camb3lyp_def2svp\ethanol\dftopt22
  ***********************************

NOTE: MaxCore=2500 MB was set to SCF,MP2,MDCI,CIPSI,MRCI,RASCI and CIS
      => If you want to overwrite this, your respective input block should be placed after the MaxCore statement
XCFun DFT library Copyright 2009-2010 Ulf Ekstrom and contributors.
See http://admol.org/xcfun for more information.
This is free software; see the source code for copying conditions.
There is ABSOLUTELY NO WARRANTY; not even for MERCHANTABILITY or FITNESS FOR A PARTICULAR PURPOSE.
For details see the documentation.
Scientific users of this library should cite U. Ekstrom, L. Visscher, R. Bast, A. J. Thorvaldsen and K. Ruud;
J.Chem.Theor.Comp. 2010, DOI: 10.1021/ct100117s
XCFun Version 0.99 

================================================================================

----- Orbital basis set information -----
Your calculation utilizes the basis: def2-SVP
   F. Weigend and R. Ahlrichs, Phys. Chem. Chem. Phys. 7, 3297 (2005).

----- AuxJ basis set information -----
Your calculation utilizes the auxiliary basis: def2/J
   H-Rn: F. Weigend, Phys. Chem. Chem. Phys. 8, 1057 (2006).
   Fr-Lr: K. Eichkorn, F. Weigend, O. Treutler, R. Ahlrichs; Theor. Chem. Acc. 97, 119 (1997).

================================================================================
                                        WARNINGS
                       Please study these warnings very carefully!
================================================================================


WARNING: CIS/ROCIS methods need fully converged wavefunctions
  ===> : Setting SCFConvForced true
         You can overwrite this default with %scf ConvForced false 


================================================================================
                                       INPUT FILE
================================================================================
NAME = td.inp
|  1> # enolA / enolA_c000 / camb3lyp_def2svp / solvent=ethanol
|  2> ! CAM-B3LYP def2-SVP RIJCOSX def2/J TightSCF CPCM(Ethanol)
|  3> %pal nprocs 4 end
|  4> %maxcore 2500
|  5> %scf
|  6>   MaxIter 300
|  7> end
|  8> %tddft
|  9>   nroots 22
| 10>   tda    true
| 11>   maxdim 5
| 12> end
| 13> * xyz 0 1
| 14> C     -6.4464437539     0.1126843508    -0.2593233986
| 15> C     -5.3361748559    -0.1997566761     0.7608485581
| 16> C     -5.5371897047     0.7137443489     1.9936696337
| 17> C     -5.4722864059    -1.6803002750     1.1898519635
| 18> C     -3.9289767496     0.0334154976     0.1810493147
| 19> C     -3.7071144182     0.4984888100    -1.1266125553
| 20> C     -2.4164415614     0.6983681094    -1.6220910513
| 21> C     -1.2857629286     0.4362406950    -0.8291848868
| 22> C     -1.4983311564    -0.0265346848     0.4852593253
| 23> C     -2.7877900426    -0.2199399260     0.9719343279
| 24> C      0.0661703711     0.6497965916    -1.3897923632
| 25> O      0.0959623555     1.1970521222    -2.5936299767
| 26> C      1.2453135767     0.3092001534    -0.7436873683
| 27> C      2.5143919797     0.5518716766    -1.3809546772
| 28> O      2.5637497138     1.0794761367    -2.5280956999
| 29> C      3.7909493267     0.1872035299    -0.7074185620
| 30> C      3.8566385347    -0.4226743177     0.5648627044
| 31> C      5.0779430177    -0.7416595820     1.1430608111
| 32> C      6.2837306116    -0.4610959975     0.4677297204
| 33> O      7.4195074738    -0.8061302538     1.1074695819
| 34> C      8.6774055050    -0.5574544669     0.4926290353
| 35> C      6.2369092305     0.1464803654    -0.8015222796
| 36> C      5.0026336411     0.4597930029    -1.3684818177
| 37> H     -7.4303823884    -0.0730354629     0.1997522890
| 38> H     -6.4235142386     1.1655688153    -0.5825094635
| 39> H     -6.3715275103    -0.5231652080    -1.1558806775
| 40> H     -4.8001801122     0.5052431310     2.7846378949
| 41> H     -6.5415054293     0.5575691011     2.4210923868
| 42> H     -5.4469597023     1.7765308362     1.7155420539
| 43> H     -4.7326606539    -1.9552110716     1.9576123761
| 44> H     -6.4756107231    -1.8625293559     1.6091547159
| 45> H     -5.3355855113    -2.3541618969     0.3283118147
| 46> H     -4.5487296010     0.7132874607    -1.7855896260
| 47> H     -2.2801745558     1.0595150762    -2.6425276291
| 48> H     -0.6531578318    -0.2329382632     1.1444467590
| 49> H     -2.9038633140    -0.5776821109     1.9976351182
| 50> H      1.0918641651     1.2666262333    -2.8276495632
| 51> H      1.2023191057    -0.1496735751     0.2388864970
| 52> H      2.9465878604    -0.6567904380     1.1193437919
| 53> H      5.1286203622    -1.2138327796     2.1268720903
| 54> H      9.4401348508    -0.9175984082     1.1951761860
| 55> H      8.7740776218    -1.1038265241    -0.4608167348
| 56> H      8.8300752892     0.5196754114     0.3101075653
| 57> H      7.1517318187     0.3762545366    -1.3484469876
| 58> H      4.9636467270     0.9301998824    -2.3527211866
| 59> *
| 60> 
| 61>                          ****END OF INPUT****
================================================================================

                       ****************************
                       * Single Point Calculation *
                       ****************************

---------------------------------
CARTESIAN COORDINATES (ANGSTROEM)
---------------------------------
  C     -6.446444    0.112684   -0.259323
  C     -5.336175   -0.199757    0.760849
  C     -5.537190    0.713744    1.993670
  C     -5.472286   -1.680300    1.189852
  C     -3.928977    0.033415    0.181049
  C     -3.707114    0.498489   -1.126613
  C     -2.416442    0.698368   -1.622091
  C     -1.285763    0.436241   -0.829185
  C     -1.498331   -0.026535    0.485259
  C     -2.787790   -0.219940    0.971934
  C      0.066170    0.649797   -1.389792
  O      0.095962    1.197052   -2.593630
  C      1.245314    0.309200   -0.743687
  C      2.514392    0.551872   -1.380955
  O      2.563750    1.079476   -2.528096
  C      3.790949    0.187204   -0.707419
  C      3.856639   -0.422674    0.564863
  C      5.077943   -0.741660    1.143061
  C      6.283731   -0.461096    0.467730
  O      7.419507   -0.806130    1.107470
  C      8.677406   -0.557454    0.492629
  C      6.236909    0.146480   -0.801522
  C      5.002634    0.459793   -1.368482
  H     -7.430382   -0.073035    0.199752
  H     -6.423514    1.165569   -0.582509
  H     -6.371528   -0.523165   -1.155881
  H     -4.800180    0.505243    2.784638
  H     -6.541505    0.557569    2.421092
  H     -5.446960    1.776531    1.715542
  H     -4.732661   -1.955211    1.957612
  H     -6.475611   -1.862529    1.609155
  H     -5.335586   -2.354162    0.328312
  H     -4.548730    0.713287   -1.785590
  H     -2.280175    1.059515   -2.642528
  H     -0.653158   -0.232938    1.144447
  H     -2.903863   -0.577682    1.997635
  H      1.091864    1.266626   -2.827650
  H      1.202319   -0.149674    0.238886
  H      2.946588   -0.656790    1.119344
  H      5.128620   -1.213833    2.126872
  H      9.440135   -0.917598    1.195176
  H      8.774078   -1.103827   -0.460817
  H      8.830075    0.519675    0.310108
  H      7.151732    0.376255   -1.348447
  H      4.963647    0.930200   -2.352721

----------------------------
CARTESIAN COORDINATES (A.U.)
----------------------------
  NO LB      ZA    FRAG     MASS         X           Y           Z
   0 C     6.0000    0    12.011  -12.182013    0.212943   -0.490050
   1 C     6.0000    0    12.011  -10.083909   -0.377485    1.437795
   2 C     6.0000    0    12.011  -10.463772    1.348781    3.767490
   3 C     6.0000    0    12.011  -10.341123   -3.175307    2.248494
   4 C     6.0000    0    12.011   -7.424690    0.063146    0.342134
   5 C     6.0000    0    12.011   -7.005431    0.942007   -2.128989
   6 C     6.0000    0    12.011   -4.566413    1.319724   -3.065308
   7 C     6.0000    0    12.011   -2.429740    0.824375   -1.566932
   8 C     6.0000    0    12.011   -2.831436   -0.050143    0.917007
   9 C     6.0000    0    12.011   -5.268160   -0.415626    1.836690
  10 C     6.0000    0    12.011    0.125044    1.227938   -2.626327
  11 O     8.0000    0    15.999    0.181343    2.262101   -4.901250
  12 C     6.0000    0    12.011    2.353302    0.584304   -1.405365
  13 C     6.0000    0    12.011    4.751512    1.042886   -2.609626
  14 O     8.0000    0    15.999    4.844785    2.039914   -4.777409
  15 C     6.0000    0    12.011    7.163856    0.353763   -1.336827
  16 C     6.0000    0    12.011    7.287991   -0.798739    1.067436
  17 C     6.0000    0    12.011    9.595922   -1.401533    2.160072
  18 C     6.0000    0    12.011   11.874530   -0.871345    0.883881
  19 O     8.0000    0    15.999   14.020837   -1.523365    2.092814
  20 C     6.0000    0    12.011   16.397920   -1.053436    0.930934
  21 C     6.0000    0    12.011   11.786050    0.276808   -1.514658
  22 C     6.0000    0    12.011    9.453608    0.868883   -2.586056
  23 H     1.0000    0     1.008  -14.041388   -0.138017    0.377477
  24 H     1.0000    0     1.008  -12.138683    2.202606   -1.100783
  25 H     1.0000    0     1.008  -12.040442   -0.988639   -2.184298
  26 H     1.0000    0     1.008   -9.071026    0.954771    5.262203
  27 H     1.0000    0     1.008  -12.361654    1.053653    4.575202
  28 H     1.0000    0     1.008  -10.293262    3.357157    3.241905
  29 H     1.0000    0     1.008   -8.943433   -3.694813    3.699351
  30 H     1.0000    0     1.008  -12.237131   -3.519670    3.040862
  31 H     1.0000    0     1.008  -10.082795   -4.448721    0.620419
  32 H     1.0000    0     1.008   -8.595853    1.347918   -3.374275
  33 H     1.0000    0     1.008   -4.308905    2.002193   -4.993654
  34 H     1.0000    0     1.008   -1.234289   -0.440190    2.162691
  35 H     1.0000    0     1.008   -5.487506   -1.091661    3.774983
  36 H     1.0000    0     1.008    2.063324    2.393577   -5.343483
  37 H     1.0000    0     1.008    2.272054   -0.282842    0.451430
  38 H     1.0000    0     1.008    5.568244   -1.241154    2.115253
  39 H     1.0000    0     1.008    9.691688   -2.293812    4.019206
  40 H     1.0000    0     1.008   17.839270   -1.734010    2.258556
  41 H     1.0000    0     1.008   16.580604   -2.085930   -0.870817
  42 H     1.0000    0     1.008   16.686424    0.982044    0.586018
  43 H     1.0000    0     1.008   13.514815    0.711018   -2.548196
  44 H     1.0000    0     1.008    9.379933    1.757823   -4.445999

--------------------------------
INTERNAL COORDINATES (ANGSTROEM)
--------------------------------
 C      0   0   0     0.000000000000     0.00000000     0.00000000
 C      1   0   0     1.539827017036     0.00000000     0.00000000
 C      2   1   0     1.547494393062   108.32252607     0.00000000
 C      2   1   3     1.547442930816   108.32380625   118.59671689
 C      2   1   3     1.539721707196   112.25733399   239.31257266
 C      5   2   1     1.405523264216   123.00525437     0.90792869
 C      6   5   2     1.396884783226   121.54720552   180.05437645
 C      7   6   5     1.405647586614   121.09478317     0.22167811
 C      8   7   6     1.409648853560   117.76926951   359.59039694
 C      9   8   7     1.391747953000   120.75729722     0.25695190
 C      8   7   6     1.479057304639   119.63780405   179.55341126
 O     11   8   7     1.322724906314   115.16887244     5.71867714
 C     11   8   7     1.387024259868   124.40514727   186.17418321
 C     13  11   8     1.440680076952   120.09610843   179.61130818
 O     14  13  11     1.263619870924   120.41783059     0.24186954
 C     14  13  11     1.488701587248   120.92865880   180.31789940
 C     16  14  13     1.412432540645   123.58610579     0.79359268
 C     17  16  14     1.388398101997   121.01363246   179.92562899
 C     18  17  16     1.410216908357   120.46373683     0.00000000
 O     19  18  17     1.348445330416   116.23686621   179.98421279
 C     20  19  18     1.422032349010   119.68257916   179.95036917
 C     19  18  17     1.407956646345   119.28318389   359.97559811
 C     22  19  18     1.393931188133   119.54490686     0.00000000
 H      1   2   3     1.101534190394   109.49569801   300.44422457
 H      1   2   3     1.101608229273   111.91884918    59.63973691
 H      1   2   3     1.101695084554   111.90204027   181.21525631
 H      3   2   1     1.101038912813   111.93590592   177.27170678
 H      3   2   1     1.102601919358   110.09197542    57.48708006
 H      3   2   1     1.102275610529   110.94768857   297.99705327
 H      4   2   1     1.100944253931   111.91006265   182.66883369
 H      4   2   1     1.102579666773   110.09640422   302.47412699
 H      4   2   1     1.102283107032   110.93509981    61.96708588
 H      6   5   2     1.090277650863   120.37581830     0.00000000
 H      7   6   5     1.091002583753   119.63876979   179.94011247
 H      9   8   7     1.091534909446   120.55996048   180.73647294
 H     10   9   8     1.092480931830   118.18076985   180.13861984
 H     12  11   8     1.025390724634   104.93123783   180.32907171
 H     13  11   8     1.085294901865   119.46414074     0.23525067
 H     17  16  14     1.091078303319   120.77236401     0.00000000
 H     18  17  16     1.092428649779   121.00771313   180.03200025
 H     21  20  19     1.097739592233   106.29218002   179.91850040
 H     21  20  19     1.103144033922   111.38300309   298.82611001
 H     21  20  19     1.103100595932   111.39053386    60.98325592
 H     22  19  18     1.090331680661   121.01314900   179.97702950
 H     23  22  19     1.091572144682   119.68485751   180.04521979

---------------------------
INTERNAL COORDINATES (A.U.)
---------------------------
 C      0   0   0     0.000000000000     0.00000000     0.00000000
 C      1   0   0     2.909851355811     0.00000000     0.00000000
 C      2   1   0     2.924340596665   108.32252607     0.00000000
 C      2   1   3     2.924243347114   108.32380625   118.59671689
 C      2   1   3     2.909652349053   112.25733399   239.31257266
 C      5   2   1     2.656054044224   123.00525437     0.90792869
 C      6   5   2     2.639729680938   121.54720552   180.05437645
 C      7   6   5     2.656288979507   121.09478317     0.22167811
 C      8   7   6     2.663850278224   117.76926951   359.59039694
 C      9   8   7     2.630022478615   120.75729722     0.25695190
 C      8   7   6     2.795013242143   119.63780405   179.55341126
 O     11   8   7     2.499587823451   115.16887244     5.71867714
 C     11   8   7     2.621095992255   124.40514727   186.17418321
 C     13  11   8     2.722490792036   120.09610843   179.61130818
 O     14  13  11     2.387895493427   120.41783059     0.24186954
 C     14  13  11     2.813238295033   120.92865880   180.31789940
 C     16  14  13     2.669110684458   123.58610579     0.79359268
 C     17  16  14     2.623692177630   121.01363246   179.92562899
 C     18  17  16     2.664923746220   120.46373683     0.00000000
 O     19  18  17     2.548192381052   116.23686621   179.98421279
 C     20  19  18     2.687251693205   119.68257916   179.95036917
 C     19  18  17     2.660652470026   119.28318389   359.97559811
 C     22  19  18     2.634148195102   119.54490686     0.00000000
 H      1   2   3     2.081597946996   109.49569801   300.44422457
 H      1   2   3     2.081737860201   111.91884918    59.63973691
 H      1   2   3     2.081901992894   111.90204027   181.21525631
 H      3   2   1     2.080662008007   111.93590592   177.27170678
 H      3   2   1     2.083615662322   110.09197542    57.48708006
 H      3   2   1     2.082999028000   110.94768857   297.99705327
 H      4   2   1     2.080483128645   111.91006265   182.66883369
 H      4   2   1     2.083573611031   110.09640422   302.47412699
 H      4   2   1     2.083013194339   110.93509981    61.96708588
 H      6   5   2     2.060326170065   120.37581830     0.00000000
 H      7   6   5     2.061696094694   119.63876979   179.94011247
 H      9   8   7     2.062702044468   120.55996048   180.73647294
 H     10   9   8     2.064489767690   118.18076985   180.13861984
 H     12  11   8     1.937707649821   104.93123783   180.32907171
 H     13  11   8     2.050910139066   119.46414074     0.23525067
 H     17  16  14     2.061839183936   120.77236401     0.00000000
 H     18  17  16     2.064390968932   121.00771313   180.03200025
 H     21  20  19     2.074427195683   106.29218002   179.91850040
 H     21  20  19     2.084640110381   111.38300309   298.82611001
 H     21  20  19     2.084558024477   111.39053386    60.98325592
 H     22  19  18     2.060428271587   121.01314900   179.97702950
 H     23  22  19     2.062772408865   119.68485751   180.04521979

---------------------
BASIS SET INFORMATION
---------------------
There are 3 groups of distinct atoms

 Group   1 Type C   : 7s4p1d contracted to 3s2p1d pattern {511/31/1}
 Group   2 Type O   : 7s4p1d contracted to 3s2p1d pattern {511/31/1}
 Group   3 Type H   : 4s1p contracted to 2s1p pattern {31/1}

Atom   0C    basis set group =>   1
Atom   1C    basis set group =>   1
Atom   2C    basis set group =>   1
Atom   3C    basis set group =>   1
Atom   4C    basis set group =>   1
Atom   5C    basis set group =>   1
Atom   6C    basis set group =>   1
Atom   7C    basis set group =>   1
Atom   8C    basis set group =>   1
Atom   9C    basis set group =>   1
Atom  10C    basis set group =>   1
Atom  11O    basis set group =>   2
Atom  12C    basis set group =>   1
Atom  13C    basis set group =>   1
Atom  14O    basis set group =>   2
Atom  15C    basis set group =>   1
Atom  16C    basis set group =>   1
Atom  17C    basis set group =>   1
Atom  18C    basis set group =>   1
Atom  19O    basis set group =>   2
Atom  20C    basis set group =>   1
Atom  21C    basis set group =>   1
Atom  22C    basis set group =>   1
Atom  23H    basis set group =>   3
Atom  24H    basis set group =>   3
Atom  25H    basis set group =>   3
Atom  26H    basis set group =>   3
Atom  27H    basis set group =>   3
Atom  28H    basis set group =>   3
Atom  29H    basis set group =>   3
Atom  30H    basis set group =>   3
Atom  31H    basis set group =>   3
Atom  32H    basis set group =>   3
Atom  33H    basis set group =>   3
Atom  34H    basis set group =>   3
Atom  35H    basis set group =>   3
Atom  36H    basis set group =>   3
Atom  37H    basis set group =>   3
Atom  38H    basis set group =>   3
Atom  39H    basis set group =>   3
Atom  40H    basis set group =>   3
Atom  41H    basis set group =>   3
Atom  42H    basis set group =>   3
Atom  43H    basis set group =>   3
Atom  44H    basis set group =>   3
---------------------------------
AUXILIARY/J BASIS SET INFORMATION
---------------------------------
There are 3 groups of distinct atoms

 Group   1 Type C   : 12s5p4d2f1g contracted to 6s4p3d1f1g pattern {711111/2111/211/2/1}
 Group   2 Type O   : 12s5p4d2f1g contracted to 6s4p3d1f1g pattern {711111/2111/211/2/1}
 Group   3 Type H   : 5s2p1d contracted to 3s1p1d pattern {311/2/1}

Atom   0C    basis set group =>   1
Atom   1C    basis set group =>   1
Atom   2C    basis set group =>   1
Atom   3C    basis set group =>   1
Atom   4C    basis set group =>   1
Atom   5C    basis set group =>   1
Atom   6C    basis set group =>   1
Atom   7C    basis set group =>   1
Atom   8C    basis set group =>   1
Atom   9C    basis set group =>   1
Atom  10C    basis set group =>   1
Atom  11O    basis set group =>   2
Atom  12C    basis set group =>   1
Atom  13C    basis set group =>   1
Atom  14O    basis set group =>   2
Atom  15C    basis set group =>   1
Atom  16C    basis set group =>   1
Atom  17C    basis set group =>   1
Atom  18C    basis set group =>   1
Atom  19O    basis set group =>   2
Atom  20C    basis set group =>   1
Atom  21C    basis set group =>   1
Atom  22C    basis set group =>   1
Atom  23H    basis set group =>   3
Atom  24H    basis set group =>   3
Atom  25H    basis set group =>   3
Atom  26H    basis set group =>   3
Atom  27H    basis set group =>   3
Atom  28H    basis set group =>   3
Atom  29H    basis set group =>   3
Atom  30H    basis set group =>   3
Atom  31H    basis set group =>   3
Atom  32H    basis set group =>   3
Atom  33H    basis set group =>   3
Atom  34H    basis set group =>   3
Atom  35H    basis set group =>   3
Atom  36H    basis set group =>   3
Atom  37H    basis set group =>   3
Atom  38H    basis set group =>   3
Atom  39H    basis set group =>   3
Atom  40H    basis set group =>   3
Atom  41H    basis set group =>   3
Atom  42H    basis set group =>   3
Atom  43H    basis set group =>   3
Atom  44H    basis set group =>   3


           ************************************************************
           *        Program running with 4 parallel MPI-processes     *
           *              working on a common directory               *
           ************************************************************
------------------------------------------------------------------------------
                             ORCA STARTUP CALCULATIONS
                           -- RI-GTO INTEGRALS CHOSEN --
------------------------------------------------------------------------------
------------------------------------------------------------------------------
                   ___                                                        
                  /   \      - P O W E R E D   B Y -                         
                 /     \                                                     
                 |  |  |   _    _      __       _____    __    __             
                 |  |  |  | |  | |    /  \     |  _  \  |  |  /  |          
                  \  \/   | |  | |   /    \    | | | |  |  | /  /          
                 / \  \   | |__| |  /  /\  \   | |_| |  |  |/  /          
                |  |  |   |  __  | /  /__\  \  |    /   |      \           
                |  |  |   | |  | | |   __   |  |    \   |  |\   \          
                \     /   | |  | | |  |  |  |  | |\  \  |  | \   \       
                 \___/    |_|  |_| |__|  |__|  |_| \__\ |__|  \__/        
                                                                              
                      - O R C A' S   B I G   F R I E N D -                    
                                      &                                       
                       - I N T E G R A L  F E E D E R -                       
                                                                              
 v1 FN, 2020, v2 2021, v3 2022-2024                                           
------------------------------------------------------------------------------


----------------------
SHARK INTEGRAL PACKAGE
----------------------

Number of atoms                             ...     45
Number of basis functions                   ...    432
Number of shells                            ...    204
Maximum angular momentum                    ...      2
Integral batch strategy                     ... SHARK/LIBINT Hybrid
RI-J (if used) integral strategy            ... SPLIT-RIJ (Revised 2003 algorithm where possible)
Printlevel                                  ...      1
Contraction scheme used                     ... SEGMENTED contraction
Prescreening option                         ... SCHWARTZ
   Thresh                                   ... 2.500e-11
   Tcut                                     ... 2.500e-12
   Tpresel                                  ... 2.500e-12 
Coulomb Range Separation                    ... NOT USED
Exchange Range Separation                   ... Long Range
   Mu parameter                             ... 3.300e-01
   Scaling (regular/separated)              ... 1.900e-01 4.600e-01
Robust (split-)RI terms used:
  metric    (central integrals)             ... YES
  density   (r.h.s.  integrals)             ... YES
  potential (l.h.s.  integrals)             ... YES
Multipole approximations                    ... NOT USED
Finite Nucleus Model                        ... NOT USED
CABS basis                                  ... NOT available
Auxiliary Coulomb fitting basis             ... AVAILABLE
   # of basis functions in Aux-J            ...   1369
   # of shells in Aux-J                     ...    455
   Maximum angular momentum in Aux-J        ...      4
Auxiliary J/K fitting basis                 ... NOT available
Auxiliary Correlation fitting basis         ... NOT available
Auxiliary 'external' fitting basis          ... NOT available

Checking pre-screening integrals            ... done (  0.0 sec) Dimension = 204
   => SHARK Basis and OBASIS are compatible. Storing Pre-screening
Shell pair information
Shell pair cut-off parameter TPreSel        ...   2.5e-12
Total number of shell pairs                 ...     20910
Shell pairs after pre-screening             ...     12199
Total number of primitive shell pairs       ...     75056
Primitive shell pairs kept                  ...     28783
          la=0 lb=0:   3857 shell pairs
          la=1 lb=0:   4557 shell pairs
          la=1 lb=1:   1397 shell pairs
          la=2 lb=0:   1410 shell pairs
          la=2 lb=1:    843 shell pairs
          la=2 lb=2:    135 shell pairs

Checking whether 4 symmetric matrices of dimension 432 fit in memory
:Max Core in MB      =   2500.00
 MB in use           =     15.41
 MB left             =   2484.59
 MB needed           =      2.85
 Data fit in memory  = YES
Calculating RI/J V-Matrix + Cholesky decomp.... done (  0.3 sec)
Calculating Nuclear repulsion               ... done (  0.0 sec) ENN=   1726.234492521343 Eh

Diagonalization of the overlap matrix:
Smallest eigenvalue                        ... 2.690e-04
Time for diagonalization                   ...    0.059 sec
Threshold for overlap eigenvalues          ... 1.000e-07
Number of eigenvalues below threshold      ... 0
Time for construction of square roots      ...    0.062 sec
Total time needed                          ...    0.130 sec

-------------------
DFT GRID GENERATION
-------------------

General Integration Accuracy     IntAcc      ... 4.388
Radial Grid Type                 RadialGrid  ... OptM3 with GC (2021)
Angular Grid (max. ang.)         AngularGrid ... 4 (Lebedev-302)
Angular grid pruning method      GridPruning ... 4 (adaptive)
Weight generation scheme         WeightScheme... mBecke (2022)
Basis function cutoff            BFCut       ... 1.0000e-11
Integration weight cutoff        WCut        ... 1.0000e-14
Partially contracted basis set               ... off
Rotationally invariant grid construction     ... off
Angular grids for H and He will be reduced by one unit

Total number of grid points                  ...   207660
Total number of batches                      ...     3270
Average number of points per batch           ...       63
Average number of grid points per atom       ...     4615

--------------------
COSX GRID GENERATION
--------------------

GRIDX 1
-------
General Integration Accuracy     IntAcc      ... 3.816
Radial Grid Type                 RadialGrid  ... OptM3 with GC (2021)
Angular Grid (max. ang.)         AngularGrid ... 1 (Lebedev-50)
Angular grid pruning method      GridPruning ... 4 (adaptive)
Weight generation scheme         WeightScheme... mBecke (2022)
Basis function cutoff            BFCut       ... 1.0000e-11
Integration weight cutoff        WCut        ... 1.0000e-14
Partially contracted basis set               ... on
Rotationally invariant grid construction     ... off
Angular grids for H and He will be reduced by one unit

Total number of grid points                  ...    26489
Total number of batches                      ...      234
Average number of points per batch           ...      113
Average number of grid points per atom       ...      589
UseSFitting                                  ... on

GRIDX 2
-------
General Integration Accuracy     IntAcc      ... 4.020
Radial Grid Type                 RadialGrid  ... OptM3 with GC (2021)
Angular Grid (max. ang.)         AngularGrid ... 2 (Lebedev-110)
Angular grid pruning method      GridPruning ... 4 (adaptive)
Weight generation scheme         WeightScheme... mBecke (2022)
Basis function cutoff            BFCut       ... 1.0000e-11
Integration weight cutoff        WCut        ... 1.0000e-14
Partially contracted basis set               ... on
Rotationally invariant grid construction     ... off
Angular grids for H and He will be reduced by one unit

Total number of grid points                  ...    56824
Total number of batches                      ...      467
Average number of points per batch           ...      121
Average number of grid points per atom       ...     1263
UseSFitting                                  ... on

GRIDX 3
-------
General Integration Accuracy     IntAcc      ... 4.338
Radial Grid Type                 RadialGrid  ... OptM3 with GC (2021)
Angular Grid (max. ang.)         AngularGrid ... 3 (Lebedev-194)
Angular grid pruning method      GridPruning ... 4 (adaptive)
Weight generation scheme         WeightScheme... mBecke (2022)
Basis function cutoff            BFCut       ... 1.0000e-11
Integration weight cutoff        WCut        ... 1.0000e-14
Partially contracted basis set               ... on
Rotationally invariant grid construction     ... off
Angular grids for H and He will be reduced by one unit

Total number of grid points                  ...   124093
Total number of batches                      ...      985
Average number of points per batch           ...      125
Average number of grid points per atom       ...     2758
UseSFitting                                  ... on
Grids setup in   7.4 sec
Initializing property integral containers    ... done (  0.2 sec)

SHARK setup successfully completed in   8.5 seconds

Maximum memory used throughout the entire STARTUP-calculation: 57.8 MB


           ************************************************************
           *        Program running with 4 parallel MPI-processes     *
           *              working on a common directory               *
           ************************************************************
-------------------------------------------------------------------------------
                                 ORCA GUESS
                   Start orbitals & Density for SCF / CASSCF
-------------------------------------------------------------------------------

------------
SCF SETTINGS
------------
Hamiltonian:
 Density Functional     Method          .... DFT(GTOs)
 Exchange Functional    Exchange        .... WB88
 Correlation Functional Correlation     .... LYP
 LDA part of GGA corr.  LDAOpt          .... VWN-5
 Gradients option       PostSCFGGA      .... off
 Hybrid DFT is turned on
   Fraction HF Exchange ScalHFX         ....  0.190000
   Scaling of DF-GGA-X  ScalDFX         ....  0.350000
   Scaling of DF-GGA-C  ScalDFC         ....  0.810000
   Scaling of DF-LDA-C  ScalLDAC        ....  1.000000
   Perturbative correction              ....  0.000000
 Long-range corrected/Screened/Range-Separated Hybrid DFT is turned on
   Amount of maximum screened exact exchange              ....  0.460000
   Range separation parameter mu (erf(mu*r12)/r12)        ....  0.330000
 RI-approximation to the Coulomb term is turned on
   Number of AuxJ basis functions       .... 1369
   RIJ-COSX (HFX calculated with COS-X)).... on


General Settings:
 Integral files         IntName         .... td
 Hartree-Fock type      HFTyp           .... RHF
 Total Charge           Charge          ....    0
 Multiplicity           Mult            ....    1
 Number of Electrons    NEL             ....  166
 Basis Dimension        Dim             ....  432
 Nuclear Repulsion      ENuc            ....   1726.2344925213 Eh

Convergence Acceleration:
 AO-DIIS                CNVDIIS         .... on
   Start iteration      DIISMaxIt       ....    12
   Startup error        DIISStart       ....  0.200000
   # of expansion vecs  DIISMaxEq       ....     5
   Bias factor          DIISBfac        ....   1.050
   Max. coefficient     DIISMaxC        ....  10.000
 MO-DIIS                CNVKDIIS        .... off
 Trust-Rad. Augm. Hess. CNVTRAH         .... auto
   Auto Start mean grad. ratio tolernc. ....  1.125000
   Auto Start start iteration           ....    50
   Auto Start num. interpolation iter.  ....    10
   Max. Number of Micro iterations      ....    24
   Max. Number of Macro iterations      .... Maxiter - #DIIS iter
   Number of Davidson start vectors     ....     2
   Converg. threshold    (grad. norm)   ....   1.000e-05
   Grad. Scal. Fac. for Micro threshold ....   0.100
   Minimum threshold for Micro iter.    ....   1.000e-02
   NR start threshold (gradient norm)   ....   1.000e-04
   Initial trust radius                 ....   0.400
   Minimum AH scaling param. (alpha)    ....   1.000
   Maximum AH scaling param. (alpha)    .... 1000.000
   Quad. conv. algorithm                .... NR
   White noise on init. David. guess    .... on
   Maximum white noise                  ....   0.010
   Pseudo random numbers                .... off
   Inactive MOs                         .... canonical
   Orbital update algorithm             .... Taylor
   Preconditioner                       .... Diag
   Full preconditioner red. dimension   ....   250
 SOSCF                 CNVSOSCF           .... on
   Start iteration     SOSCFMaxIt         ....   150
   Startup grad/error  SOSCFStart         ....  0.003300
   Hessian update      SOSCFHessUp        .... L-BFGS
   Autom. constraints  SOSCFAutoConstrain .... off
 Level Shifting         CNVShift        .... on
   Level shift para.    LevelShift      ....    0.2500
   Turn off err/grad.   ShiftErr        ....    0.0010
 Zerner damping         CNVZerner       .... off
 Static damping         CNVDamp         .... on
   Fraction old density DampFac         ....    0.7000
   Max. Damping (<1)    DampMax         ....    0.9800
   Min. Damping (>=0)   DampMin         ....    0.0000
   Turn off err/grad.   DampErr         ....    0.1000

SCF Procedure:
 Maximum # iterations   MaxIter         ....   300
 SCF integral mode      SCFMode         .... Direct
   Integral package                     .... SHARK and LIBINT hybrid scheme
 Reset frequency        DirectResetFreq ....    20
 Integral Threshold     Thresh          ....  2.500e-11 Eh
 Primitive CutOff       TCut            ....  2.500e-12 Eh

Convergence Tolerance:
 Convergence Check Mode ConvCheckMode   .... Total+1el-Energy
 Convergence forced     ConvForced      .... 1
 Energy Change          TolE            ....  1.000e-08 Eh
 1-El. energy change                    ....  1.000e-05 Eh
 Orbital Gradient       TolG            ....  1.000e-05
 Orbital Rotation angle TolX            ....  1.000e-05
 DIIS Error             TolErr          ....  5.000e-07

------------------------------
INITIAL GUESS: MODEL POTENTIAL
------------------------------
Loading Hartree-Fock densities                     ... done
Calculating cut-offs                               ... done
Initializing the effective Hamiltonian             ... done
Setting up the integral package (SHARK)            ... done
Starting the Coulomb interaction                   ... done (   0.8 sec)
Making the grid                                    ... done (   1.1 sec)
Mapping shells                                     ... done
Starting the XC term evaluation                    ... done (   1.0 sec)
  promolecular density results
     # of electrons  =    165.989784060
     EX              =   -133.219607774
     EC              =     -5.542085483
     EX+EC           =   -138.761693258
Transforming the Hamiltonian                       ... done (   0.1 sec)
Diagonalizing the Hamiltonian                      ... done (   0.0 sec)
Back transforming the eigenvectors                 ... done (   0.0 sec)
Now organizing SCF variables                       ... done
                      ------------------
                      INITIAL GUESS DONE (   3.1 sec)
                      ------------------
             **** ENERGY FILE WAS UPDATED (td.en.tmp) ****
Finished Guess after   3.4 sec
Maximum memory used throughout the entire GUESS-calculation: 21.7 MB


           ************************************************************
           *        Program running with 4 parallel MPI-processes     *
           *              working on a common directory               *
           ************************************************************

-------------------------------------------------------------------------------------------
                                      ORCA LEAN-SCF
                              memory conserving SCF solver
-------------------------------------------------------------------------------------------

--------------------
CPCM SOLVATION MODEL
--------------------
CPCM parameters:
  Epsilon                                         ...      25.4510
  Refrac                                          ...       1.3611
  Rsolv                                           ...       1.3000
  Surface type                                    ... GAUSSIAN VDW
  Discretization scheme                           ... Constant charge density
    Threshold for H atoms                         ...       5.0000 (charges/Ang^2)
    Threshold for non-H atoms                     ...       5.0000 (charges/Ang^2)
  Epsilon function type                           ...         CPCM
Solvent:                                          ... ETHANOL
Radii:
  Scheme                                          ... Element-dependent radii
  Radius for C  used is    3.8550 Bohr (=   2.0400 Ang.)
  Radius for O  used is    3.4469 Bohr (=   1.8240 Ang.)
  Radius for H  used is    2.4944 Bohr (=   1.3200 Ang.)
Calculating surface                               ...        done! (  0.0s)
Cavity surface points                             ...         3814
Cavity Volume                                     ...    2632.3034
Cavity Surface-area                               ...    1350.7236
Calculating surface distance matrix               ...        done! (  0.2s)
Performing Cholesky decomposition & store         ...        done! (  1.1s)
Overall time for CPCM initialization              ...                 1.3s

----------------------------------------D-I-I-S--------------------------------------------
Iteration    Energy (Eh)           Delta-E    RMSDP     MaxDP     DIISErr   Damp  Time(sec)
-------------------------------------------------------------------------------------------
               ***  Starting incremental Fock matrix formation  ***
    1    -999.4018843602038942     0.00e+00  3.36e-03  6.70e-02  2.09e-01  0.700  36.7
    2    -999.5772586247530853    -1.75e-01  2.47e-03  4.33e-02  9.78e-02  0.700  16.5
                               ***Turning on AO-DIIS***
    3    -999.6633217899011470    -8.61e-02  1.21e-03  1.75e-02  4.17e-02  0.700  41.5
    4    -999.7143225918030112    -5.10e-02  2.45e-03  3.01e-02  2.70e-02  0.000  36.4
    5    -999.8234661424307888    -1.09e-01  2.41e-04  6.06e-03  4.15e-03  0.000  48.4
    6    -999.8237581640460121    -2.92e-04  1.06e-04  2.76e-03  3.82e-03  0.000  50.9
                              *** Initializing SOSCF ***
---------------------------------------S-O-S-C-F--------------------------------------
Iteration    Energy (Eh)           Delta-E    RMSDP     MaxDP     MaxGrad    Time(sec)
--------------------------------------------------------------------------------------
    7    -999.8238125424595637    -5.44e-05  5.04e-05  1.25e-03  8.21e-04    17.3
               *** Restarting incremental Fock matrix formation ***
    8    -999.8236626941384202     1.50e-04  5.76e-05  9.66e-04  5.73e-04    36.4
    9    -999.8236694790825823    -6.78e-06  4.30e-05  1.07e-03  2.20e-04    19.8
   10    -999.8236702572703507    -7.78e-07  1.99e-05  4.80e-04  1.40e-04    19.9
   11    -999.8236711875670153    -9.30e-07  5.67e-06  1.13e-04  2.35e-05    16.8
   12    -999.8236712152161090    -2.76e-08  2.77e-06  6.48e-05  1.49e-05    12.1
   13    -999.8236712495126994    -3.43e-08  5.88e-07  1.14e-05  3.35e-06    12.4
   14    -999.8236712550651646    -5.55e-09  3.53e-07  5.39e-06  3.70e-06     7.8
                 **** Energy Check signals convergence ****

               *****************************************************
               *                     SUCCESS                       *
               *           SCF CONVERGED AFTER  14 CYCLES          *
               *****************************************************

Recomputing exchange energy using gridx3       ... done (   70.909 sec)
Old exchange energy                            :    -38.788627649 Eh
New exchange energy                            :    -38.788661203 Eh
Exchange energy change after final integration :     -0.000033554 Eh
Total energy after final integration           :   -999.823704811 Eh
             **** ENERGY FILE WAS UPDATED (td.en.tmp) ****

----------------
TOTAL SCF ENERGY
----------------

Total Energy       :       -999.82370481071962 Eh          -27206.58616 eV

Components:
Nuclear Repulsion  :       1726.23449252134287 Eh           46973.22861 eV
Electronic Energy  :      -2726.04138975257320 Eh          -74179.35742 eV
One Electron Energy:      -4785.83805696590844 Eh         -130229.27426 eV
Two Electron Energy:       2059.79666721333524 Eh           56049.91684 eV
CPCM Dielectric    :         -0.01677402506288 Eh              -0.45644 eV

Virial components:
Potential Energy   :      -1988.80724901517624 Eh          -54118.19656 eV
Kinetic Energy     :        988.98354420445673 Eh           26911.61040 eV
Virial Ratio       :          2.01096091099775

DFT components:
N(Alpha)           :       83.000064653896 electrons
N(Beta)            :       83.000064653896 electrons
N(Total)           :      166.000129307791 electrons
E(XC)              :     -103.009784158716 Eh       

CPCM Solvation Model Properties:
Surface-charge          :         -0.03230019327749
Corrected charge        :          0.00000000000000
Outlying charge corr.   :          0.00004888827722 Eh               0.00133 eV
Free-energy (cav+disp)  :  This term is not implemented in the current solvation scheme

---------------
SCF CONVERGENCE
---------------

  Last Energy change         ...    5.5525e-09  Tolerance :   1.0000e-08
  Last MAX-Density change    ...    5.3907e-06  Tolerance :   1.0000e-07
  Last RMS-Density change    ...    3.5337e-07  Tolerance :   5.0000e-09
  Last DIIS Error            ...    8.2114e-04  Tolerance :   5.0000e-07
  Last Orbital Gradient      ...    3.7031e-06  Tolerance :   1.0000e-05
  Last Orbital Rotation      ...    6.9215e-06  Tolerance :   1.0000e-05


----------------
ORBITAL ENERGIES
----------------

  NO   OCC          E(Eh)            E(eV) 
   0   2.0000     -19.245329      -523.6920 
   1   2.0000     -19.234900      -523.4082 
   2   2.0000     -19.198641      -522.4216 
   3   2.0000     -10.355152      -281.7780 
   4   2.0000     -10.354403      -281.7576 
   5   2.0000     -10.337633      -281.3013 
   6   2.0000     -10.312644      -280.6213 
   7   2.0000     -10.278796      -279.7003 
   8   2.0000     -10.278791      -279.7001 
   9   2.0000     -10.277243      -279.6580 
  10   2.0000     -10.275917      -279.6219 
  11   2.0000     -10.275644      -279.6145 
  12   2.0000     -10.274478      -279.5827 
  13   2.0000     -10.271612      -279.5048 
  14   2.0000     -10.270563      -279.4762 
  15   2.0000     -10.268242      -279.4131 
  16   2.0000     -10.266814      -279.3742 
  17   2.0000     -10.266429      -279.3637 
  18   2.0000     -10.265250      -279.3317 
  19   2.0000     -10.252053      -278.9726 
  20   2.0000     -10.248001      -278.8623 
  21   2.0000     -10.247945      -278.8608 
  22   2.0000     -10.246121      -278.8111 
  23   2.0000      -1.149310       -31.2743 
  24   2.0000      -1.146864       -31.2078 
  25   2.0000      -1.097351       -29.8604 
  26   2.0000      -0.946082       -25.7442 
  27   2.0000      -0.939100       -25.5542 
  28   2.0000      -0.897845       -24.4316 
  29   2.0000      -0.862078       -23.4583 
  30   2.0000      -0.842371       -22.9221 
  31   2.0000      -0.831632       -22.6299 
  32   2.0000      -0.825184       -22.4544 
  33   2.0000      -0.810111       -22.0442 
  34   2.0000      -0.778281       -21.1781 
  35   2.0000      -0.754112       -20.5204 
  36   2.0000      -0.752583       -20.4788 
  37   2.0000      -0.731173       -19.8962 
  38   2.0000      -0.699668       -19.0389 
  39   2.0000      -0.686160       -18.6714 
  40   2.0000      -0.675883       -18.3917 
  41   2.0000      -0.657677       -17.8963 
  42   2.0000      -0.638675       -17.3792 
  43   2.0000      -0.621310       -16.9067 
  44   2.0000      -0.610882       -16.6229 
  45   2.0000      -0.590272       -16.0621 
  46   2.0000      -0.573159       -15.5964 
  47   2.0000      -0.556738       -15.1496 
  48   2.0000      -0.548285       -14.9196 
  49   2.0000      -0.543351       -14.7853 
  50   2.0000      -0.531196       -14.4546 
  51   2.0000      -0.526855       -14.3365 
  52   2.0000      -0.518643       -14.1130 
  53   2.0000      -0.515703       -14.0330 
  54   2.0000      -0.509781       -13.8718 
  55   2.0000      -0.503922       -13.7124 
  56   2.0000      -0.500610       -13.6223 
  57   2.0000      -0.497055       -13.5256 
  58   2.0000      -0.493590       -13.4313 
  59   2.0000      -0.484612       -13.1870 
  60   2.0000      -0.480014       -13.0618 
  61   2.0000      -0.473253       -12.8779 
  62   2.0000      -0.458500       -12.4764 
  63   2.0000      -0.458143       -12.4667 
  64   2.0000      -0.455920       -12.4062 
  65   2.0000      -0.445218       -12.1150 
  66   2.0000      -0.438850       -11.9417 
  67   2.0000      -0.435975       -11.8635 
  68   2.0000      -0.428050       -11.6478 
  69   2.0000      -0.426331       -11.6010 
  70   2.0000      -0.423532       -11.5249 
  71   2.0000      -0.413173       -11.2430 
  72   2.0000      -0.393375       -10.7043 
  73   2.0000      -0.392842       -10.6898 
  74   2.0000      -0.390703       -10.6316 
  75   2.0000      -0.387859       -10.5542 
  76   2.0000      -0.378428       -10.2975 
  77   2.0000      -0.333524        -9.0756 
  78   2.0000      -0.329550        -8.9675 
  79   2.0000      -0.322285        -8.7698 
  80   2.0000      -0.315918        -8.5966 
  81   2.0000      -0.293853        -7.9961 
  82   2.0000      -0.275065        -7.4849 
  83   0.0000      -0.038704        -1.0532 
  84   0.0000       0.018362         0.4997 
  85   0.0000       0.030539         0.8310 
  86   0.0000       0.032640         0.8882 
  87   0.0000       0.083498         2.2721 
  88   0.0000       0.100071         2.7231 
  89   0.0000       0.110283         3.0010 
  90   0.0000       0.120176         3.2702 
  91   0.0000       0.137828         3.7505 
  92   0.0000       0.141696         3.8558 
  93   0.0000       0.144103         3.9213 
*Only the first 10 virtual orbitals were printed.

                    ********************************
                    * MULLIKEN POPULATION ANALYSIS *
                    ********************************

-----------------------
MULLIKEN ATOMIC CHARGES
-----------------------
   0 C :    0.064966
   1 C :   -0.245652
   2 C :    0.049184
   3 C :    0.047387
   4 C :    0.088475
   5 C :   -0.046062
   6 C :   -0.024485
   7 C :    0.031799
   8 C :   -0.027796
   9 C :   -0.057062
  10 C :    0.191601
  11 O :   -0.201330
  12 C :   -0.234665
  13 C :    0.215735
  14 O :   -0.348491
  15 C :    0.003476
  16 C :   -0.013626
  17 C :   -0.044653
  18 C :    0.229290
  19 O :   -0.317973
  20 C :    0.146937
  21 C :   -0.097539
  22 C :   -0.024443
  23 H :    0.016192
  24 H :    0.020629
  25 H :    0.020063
  26 H :    0.018138
  27 H :    0.017789
  28 H :    0.017244
  29 H :    0.018569
  30 H :    0.017946
  31 H :    0.017482
  32 H :    0.003256
  33 H :    0.004568
  34 H :    0.009373
  35 H :    0.011368
  36 H :    0.211851
  37 H :    0.020496
  38 H :    0.015469
  39 H :    0.004991
  40 H :    0.054640
  41 H :    0.047169
  42 H :    0.047470
  43 H :    0.013779
  44 H :    0.006443
Sum of atomic charges:   -0.0000000

--------------------------------
MULLIKEN REDUCED ORBITAL CHARGES
--------------------------------
  0 C s       :     2.954806  s :     2.954806
      pz      :     0.983544  p :     2.951928
      px      :     0.973695
      py      :     0.994688
      dz2     :     0.004412  d :     0.028300
      dxz     :     0.006474
      dyz     :     0.006942
      dx2y2   :     0.008767
      dxy     :     0.001705

  1 C s       :     3.195155  s :     3.195155
      pz      :     1.035701  p :     3.000049
      px      :     0.953799
      py      :     1.010549
      dz2     :     0.008341  d :     0.050449
      dxz     :     0.011231
      dyz     :     0.010626
      dx2y2   :     0.013168
      dxy     :     0.007083

  2 C s       :     2.985745  s :     2.985745
      pz      :     0.957686  p :     2.936693
      px      :     1.003155
      py      :     0.975852
      dz2     :     0.004622  d :     0.028378
      dxz     :     0.008359
      dyz     :     0.005198
      dx2y2   :     0.008911
      dxy     :     0.001288

  3 C s       :     2.986735  s :     2.986735
      pz      :     0.993068  p :     2.937508
      px      :     1.003925
      py      :     0.940515
      dz2     :     0.002948  d :     0.028370
      dxz     :     0.006690
      dyz     :     0.007816
      dx2y2   :     0.007868
      dxy     :     0.003047

  4 C s       :     3.075602  s :     3.075602
      pz      :     0.927634  p :     2.794909
      px      :     0.940218
      py      :     0.927056
      dz2     :     0.009674  d :     0.041014
      dxz     :     0.012523
      dyz     :     0.006012
      dx2y2   :     0.006440
      dxy     :     0.006366

  5 C s       :     3.242517  s :     3.242517
      pz      :     0.939361  p :     2.769679
      px      :     0.838592
      py      :     0.991726
      dz2     :     0.007923  d :     0.033865
      dxz     :     0.011668
      dyz     :     0.004549
      dx2y2   :     0.005023
      dxy     :     0.004702

  6 C s       :     3.263285  s :     3.263285
      pz      :     0.852155  p :     2.726692
      px      :     0.935311
      py      :     0.939226
      dz2     :     0.007719  d :     0.034508
      dxz     :     0.010472
      dyz     :     0.003151
      dx2y2   :     0.005931
      dxy     :     0.007235

  7 C s       :     3.097275  s :     3.097275
      pz      :     0.909803  p :     2.831995
      px      :     0.894183
      py      :     1.028010
      dz2     :     0.009464  d :     0.038930
      dxz     :     0.011827
      dyz     :     0.005806
      dx2y2   :     0.006359
      dxy     :     0.005473

  8 C s       :     3.226172  s :     3.226172
      pz      :     0.933815  p :     2.766912
      px      :     0.871822
      py      :     0.961275
      dz2     :     0.008235  d :     0.034713
      dxz     :     0.011412
      dyz     :     0.004932
      dx2y2   :     0.005065
      dxy     :     0.005068

  9 C s       :     3.240540  s :     3.240540
      pz      :     0.868126  p :     2.782650
      px      :     0.936762
      py      :     0.977762
      dz2     :     0.008146  d :     0.033871
      dxz     :     0.009998
      dyz     :     0.003182
      dx2y2   :     0.006133
      dxy     :     0.006413

 10 C s       :     3.086519  s :     3.086519
      pz      :     0.844740  p :     2.639435
      px      :     0.959619
      py      :     0.835076
      dz2     :     0.023053  d :     0.082445
      dxz     :     0.021521
      dyz     :     0.016563
      dx2y2   :     0.009966
      dxy     :     0.011342

 11 O s       :     3.656980  s :     3.656980
      pz      :     1.383855  p :     4.530035
      px      :     1.488349
      py      :     1.657830
      dz2     :     0.005161  d :     0.014316
      dxz     :     0.001959
      dyz     :     0.003560
      dx2y2   :     0.002956
      dxy     :     0.000679

 12 C s       :     3.208085  s :     3.208085
      pz      :     0.932144  p :     2.999994
      px      :     0.916468
      py      :     1.151382
      dz2     :     0.005323  d :     0.026586
      dxz     :     0.008617
      dyz     :     0.003052
      dx2y2   :     0.005438
      dxy     :     0.004155

 13 C s       :     3.079896  s :     3.079896
      pz      :     0.864690  p :     2.613462
      px      :     0.948095
      py      :     0.800677
      dz2     :     0.022407  d :     0.090907
      dxz     :     0.030281
      dyz     :     0.016573
      dx2y2   :     0.008965
      dxy     :     0.012682

 14 O s       :     3.736638  s :     3.736638
      pz      :     1.353254  p :     4.597105
      px      :     1.765062
      py      :     1.478789
      dz2     :     0.005773  d :     0.014748
      dxz     :     0.002465
      dyz     :     0.004687
      dx2y2   :     0.001215
      dxy     :     0.000609

 15 C s       :     3.097520  s :     3.097520
      pz      :     0.910465  p :     2.861505
      px      :     0.912666
      py      :     1.038375
      dz2     :     0.008637  d :     0.037498
      dxz     :     0.011347
      dyz     :     0.005432
      dx2y2   :     0.006387
      dxy     :     0.005694

 16 C s       :     3.229300  s :     3.229300
      pz      :     0.942014  p :     2.748866
      px      :     0.863684
      py      :     0.943168
      dz2     :     0.008223  d :     0.035460
      dxz     :     0.010591
      dyz     :     0.005279
      dx2y2   :     0.005828
      dxy     :     0.005540

 17 C s       :     3.244465  s :     3.244465
      pz      :     0.854744  p :     2.768254
      px      :     0.913623
      py      :     0.999886
      dz2     :     0.006359  d :     0.031934
      dxz     :     0.009656
      dyz     :     0.003458
      dx2y2   :     0.006067
      dxy     :     0.006393

 18 C s       :     2.956195  s :     2.956195
      pz      :     0.951414  p :     2.738419
      px      :     0.851799
      py      :     0.935207
      dz2     :     0.014637  d :     0.076095
      dxz     :     0.022930
      dyz     :     0.008505
      dx2y2   :     0.013500
      dxy     :     0.016524

 19 O s       :     3.711121  s :     3.711121
      pz      :     1.656315  p :     4.590330
      px      :     1.176006
      py      :     1.758009
      dz2     :     0.002146  d :     0.016522
      dxz     :     0.006412
      dyz     :     0.002007
      dx2y2   :     0.002592
      dxy     :     0.003365

 20 C s       :     3.020938  s :     3.020938
      pz      :     0.987145  p :     2.780163
      px      :     0.757615
      py      :     1.035403
      dz2     :     0.007966  d :     0.051962
      dxz     :     0.014379
      dyz     :     0.006428
      dx2y2   :     0.014672
      dxy     :     0.008517

 21 C s       :     3.245517  s :     3.245517
      pz      :     0.933372  p :     2.820036
      px      :     0.850471
      py      :     1.036193
      dz2     :     0.008026  d :     0.031986
      dxz     :     0.008669
      dyz     :     0.004944
      dx2y2   :     0.005794
      dxy     :     0.004554

 22 C s       :     3.269077  s :     3.269077
      pz      :     0.861874  p :     2.720042
      px      :     0.949116
      py      :     0.909052
      dz2     :     0.007013  d :     0.035324
      dxz     :     0.010030
      dyz     :     0.003576
      dx2y2   :     0.006459
      dxy     :     0.008246

 23 H s       :     0.961177  s :     0.961177
      pz      :     0.005664  p :     0.022632
      px      :     0.011885
      py      :     0.005083

 24 H s       :     0.956646  s :     0.956646
      pz      :     0.005167  p :     0.022725
      px      :     0.004283
      py      :     0.013275

 25 H s       :     0.957228  s :     0.957228
      pz      :     0.010637  p :     0.022709
      px      :     0.004273
      py      :     0.007798

 26 H s       :     0.959110  s :     0.959110
      pz      :     0.009066  p :     0.022752
      px      :     0.009008
      py      :     0.004678

 27 H s       :     0.959565  s :     0.959565
      pz      :     0.005545  p :     0.022646
      px      :     0.012582
      py      :     0.004520

 28 H s       :     0.960292  s :     0.960292
      pz      :     0.004464  p :     0.022464
      px      :     0.004829
      py      :     0.013170

 29 H s       :     0.958655  s :     0.958655
      pz      :     0.009350  p :     0.022775
      px      :     0.009084
      py      :     0.004342

 30 H s       :     0.959414  s :     0.959414
      pz      :     0.006131  p :     0.022640
      px      :     0.012560
      py      :     0.003949

 31 H s       :     0.960055  s :     0.960055
      pz      :     0.010257  p :     0.022463
      px      :     0.004928
      py      :     0.007279

 32 H s       :     0.973907  s :     0.973907
      pz      :     0.007682  p :     0.022838
      px      :     0.010531
      py      :     0.004624

 33 H s       :     0.972735  s :     0.972735
      pz      :     0.014011  p :     0.022697
      px      :     0.003469
      py      :     0.005217

 34 H s       :     0.967812  s :     0.967812
      pz      :     0.007877  p :     0.022814
      px      :     0.010550
      py      :     0.004388

 35 H s       :     0.965985  s :     0.965985
      pz      :     0.013939  p :     0.022647
      px      :     0.003277
      py      :     0.005431

 36 H s       :     0.704315  s :     0.704315
      pz      :     0.013708  p :     0.083834
      px      :     0.056610
      py      :     0.013516

 37 H s       :     0.955523  s :     0.955523
      pz      :     0.013590  p :     0.023981
      px      :     0.003335
      py      :     0.007057

 38 H s       :     0.961611  s :     0.961611
      pz      :     0.006665  p :     0.022920
      px      :     0.011803
      py      :     0.004452

 39 H s       :     0.972370  s :     0.972370
      pz      :     0.013288  p :     0.022639
      px      :     0.002960
      py      :     0.006391

 40 H s       :     0.923908  s :     0.923908
      pz      :     0.008164  p :     0.021452
      px      :     0.007552
      py      :     0.005735

 41 H s       :     0.930692  s :     0.930692
      pz      :     0.012261  p :     0.022140
      px      :     0.002650
      py      :     0.007228

 42 H s       :     0.930384  s :     0.930384
      pz      :     0.004697  p :     0.022146
      px      :     0.002848
      py      :     0.014601

 43 H s       :     0.963100  s :     0.963100
      pz      :     0.006513  p :     0.023121
      px      :     0.011704
      py      :     0.004904

 44 H s       :     0.970700  s :     0.970700
      pz      :     0.013435  p :     0.022857
      px      :     0.003443
      py      :     0.005979



                     *******************************
                     * LOEWDIN POPULATION ANALYSIS *
                     *******************************

----------------------
LOEWDIN ATOMIC CHARGES
----------------------
   0 C :   -0.048914
   1 C :   -0.045508
   2 C :   -0.043298
   3 C :   -0.043525
   4 C :    0.008898
   5 C :   -0.036452
   6 C :   -0.004198
   7 C :   -0.065615
   8 C :   -0.006025
   9 C :   -0.028837
  10 C :    0.124748
  11 O :   -0.046273
  12 C :   -0.185583
  13 C :    0.107874
  14 O :   -0.230290
  15 C :   -0.095012
  16 C :    0.003780
  17 C :   -0.060431
  18 C :    0.066949
  19 O :   -0.107189
  20 C :    0.078974
  21 C :   -0.080672
  22 C :    0.015903
  23 H :    0.028294
  24 H :    0.025625
  25 H :    0.025588
  26 H :    0.024380
  27 H :    0.026622
  28 H :    0.025829
  29 H :    0.024374
  30 H :    0.026652
  31 H :    0.025865
  32 H :    0.037172
  33 H :    0.035550
  34 H :    0.040998
  35 H :    0.036766
  36 H :    0.048193
  37 H :    0.036504
  38 H :    0.043026
  39 H :    0.041149
  40 H :    0.036074
  41 H :    0.026481
  42 H :    0.026544
  43 H :    0.042741
  44 H :    0.036270

-------------------------------
LOEWDIN REDUCED ORBITAL CHARGES
-------------------------------
  0 C s       :     2.839627  s :     2.839627
      pz      :     1.040974  p :     3.138135
      px      :     1.037477
      py      :     1.059683
      dz2     :     0.010539  d :     0.071152
      dxz     :     0.017626
      dyz     :     0.017116
      dx2y2   :     0.021805
      dxy     :     0.004066

  1 C s       :     2.844659  s :     2.844659
      pz      :     1.036045  p :     3.086132
      px      :     1.013528
      py      :     1.036560
      dz2     :     0.017780  d :     0.114717
      dxz     :     0.027174
      dyz     :     0.024106
      dx2y2   :     0.031983
      dxy     :     0.013673

  2 C s       :     2.842819  s :     2.842819
      pz      :     1.024042  p :     3.129599
      px      :     1.062767
      py      :     1.042790
      dz2     :     0.011478  d :     0.070881
      dxz     :     0.020130
      dyz     :     0.014360
      dx2y2   :     0.021902
      dxy     :     0.003011

  3 C s       :     2.842778  s :     2.842778
      pz      :     1.058821  p :     3.129873
      px      :     1.063366
      py      :     1.007686
      dz2     :     0.007514  d :     0.070875
      dxz     :     0.016402
      dyz     :     0.019268
      dx2y2   :     0.020801
      dxy     :     0.006889

  4 C s       :     2.864215  s :     2.864215
      pz      :     1.055485  p :     3.023642
      px      :     1.044168
      py      :     0.923989
      dz2     :     0.025880  d :     0.103245
      dxz     :     0.034309
      dyz     :     0.013577
      dx2y2   :     0.015926
      dxy     :     0.013553

  5 C s       :     2.857906  s :     2.857906
      pz      :     1.046283  p :     3.089570
      px      :     1.051702
      py      :     0.991585
      dz2     :     0.021875  d :     0.088975
      dxz     :     0.032797
      dyz     :     0.010581
      dx2y2   :     0.013292
      dxy     :     0.010430

  6 C s       :     2.859762  s :     2.859762
      pz      :     1.041193  p :     3.055247
      px      :     1.059774
      py      :     0.954280
      dz2     :     0.020359  d :     0.089189
      dxz     :     0.029141
      dyz     :     0.006556
      dx2y2   :     0.016907
      dxy     :     0.016226

  7 C s       :     2.848370  s :     2.848370
      pz      :     1.066633  p :     3.113350
      px      :     1.028493
      py      :     1.018224
      dz2     :     0.026388  d :     0.103894
      dxz     :     0.034699
      dyz     :     0.013523
      dx2y2   :     0.017137
      dxy     :     0.012148

  8 C s       :     2.858233  s :     2.858233
      pz      :     1.038869  p :     3.058222
      px      :     1.059628
      py      :     0.959724
      dz2     :     0.022364  d :     0.089570
      dxz     :     0.031537
      dyz     :     0.011397
      dx2y2   :     0.013313
      dxy     :     0.010959

  9 C s       :     2.857481  s :     2.857481
      pz      :     1.039191  p :     3.082729
      px      :     1.058508
      py      :     0.985030
      dz2     :     0.021598  d :     0.088627
      dxz     :     0.028403
      dyz     :     0.006611
      dx2y2   :     0.017648
      dxy     :     0.014367

 10 C s       :     2.852832  s :     2.852832
      pz      :     0.908202  p :     2.839229
      px      :     1.081108
      py      :     0.849920
      dz2     :     0.051342  d :     0.183190
      dxz     :     0.050147
      dyz     :     0.034574
      dx2y2   :     0.023426
      dxy     :     0.023702

 11 O s       :     3.421045  s :     3.421045
      pz      :     1.435393  p :     4.598636
      px      :     1.517295
      py      :     1.645949
      dz2     :     0.009788  d :     0.026593
      dxz     :     0.003947
      dyz     :     0.006457
      dx2y2   :     0.005553
      dxy     :     0.000848

 12 C s       :     2.857108  s :     2.857108
      pz      :     1.070285  p :     3.250901
      px      :     1.032005
      py      :     1.148611
      dz2     :     0.015951  d :     0.077574
      dxz     :     0.026622
      dyz     :     0.007561
      dx2y2   :     0.016584
      dxy     :     0.010855

 13 C s       :     2.859566  s :     2.859566
      pz      :     0.952571  p :     2.824974
      px      :     1.057046
      py      :     0.815357
      dz2     :     0.050463  d :     0.207586
      dxz     :     0.073312
      dyz     :     0.035675
      dx2y2   :     0.020529
      dxy     :     0.027607

 14 O s       :     3.532802  s :     3.532802
      pz      :     1.445119  p :     4.671436
      px      :     1.731931
      py      :     1.494385
      dz2     :     0.010227  d :     0.026052
      dxz     :     0.004586
      dyz     :     0.008306
      dx2y2   :     0.001860
      dxy     :     0.001074

 15 C s       :     2.853068  s :     2.853068
      pz      :     1.057185  p :     3.140306
      px      :     1.038224
      py      :     1.044896
      dz2     :     0.023448  d :     0.101638
      dxz     :     0.033170
      dyz     :     0.013664
      dx2y2   :     0.017619
      dxy     :     0.013737

 16 C s       :     2.858951  s :     2.858951
      pz      :     1.032074  p :     3.046370
      px      :     1.057838
      py      :     0.956457
      dz2     :     0.021526  d :     0.090900
      dxz     :     0.028945
      dyz     :     0.012875
      dx2y2   :     0.014955
      dxy     :     0.012599

 17 C s       :     2.860854  s :     2.860854
      pz      :     1.038492  p :     3.114482
      px      :     1.050508
      py      :     1.025482
      dz2     :     0.016796  d :     0.085095
      dxz     :     0.027716
      dyz     :     0.007652
      dx2y2   :     0.017639
      dxy     :     0.015292

 18 C s       :     2.841122  s :     2.841122
      pz      :     1.035303  p :     2.916735
      px      :     0.934759
      py      :     0.946672
      dz2     :     0.034806  d :     0.175195
      dxz     :     0.055614
      dyz     :     0.019364
      dx2y2   :     0.030654
      dxy     :     0.034756

 19 O s       :     3.423257  s :     3.423257
      pz      :     1.667714  p :     4.652835
      px      :     1.239631
      py      :     1.745490
      dz2     :     0.003550  d :     0.031097
      dxz     :     0.012485
      dyz     :     0.002385
      dx2y2   :     0.006204
      dxy     :     0.006472

 20 C s       :     2.847177  s :     2.847177
      pz      :     1.043456  p :     2.956122
      px      :     0.830506
      py      :     1.082160
      dz2     :     0.018420  d :     0.117727
      dxz     :     0.032813
      dyz     :     0.015564
      dx2y2   :     0.032257
      dxy     :     0.018674

 21 C s       :     2.858227  s :     2.858227
      pz      :     1.040538  p :     3.136845
      px      :     1.057016
      py      :     1.039291
      dz2     :     0.021711  d :     0.085600
      dxz     :     0.025586
      dyz     :     0.012659
      dx2y2   :     0.014971
      dxy     :     0.010672

 22 C s       :     2.859798  s :     2.859798
      pz      :     1.031410  p :     3.033553
      px      :     1.058632
      py      :     0.943511
      dz2     :     0.018243  d :     0.090746
      dxz     :     0.027401
      dyz     :     0.007866
      dx2y2   :     0.018202
      dxy     :     0.019033

 23 H s       :     0.907561  s :     0.907561
[...]
  0-1A  ->  6-1A    5.573354   44952.1   222.5   0.104750684   0.76715   0.63359   0.24783  -0.55162
  0-1A  ->  7-1A    5.869746   47342.7   211.2   0.034573151   0.24041  -0.05420   0.18200  -0.45205
  0-1A  ->  8-1A    6.037471   48695.5   205.4   0.157216036   1.06288  -0.28060  -0.42935   0.89431
  0-1A  ->  9-1A    6.163481   49711.8   201.2   0.124015672   0.82128   0.39255  -0.26820   0.77153
  0-1A  -> 10-1A    6.394570   51575.7   193.9   0.031467566   0.20086   0.40947  -0.08268   0.16235
  0-1A  -> 11-1A    6.527017   52643.9   190.0   0.000302878   0.00189  -0.04139   0.01156  -0.00686
  0-1A  -> 12-1A    6.619470   53389.6   187.3   0.120777477   0.74474   0.80745  -0.15141   0.26429
  0-1A  -> 13-1A    6.775965   54651.9   183.0   0.001060644   0.00639  -0.00202   0.06590   0.04519
  0-1A  -> 14-1A    6.848734   55238.8   181.0   0.053512493   0.31892  -0.56428   0.01310  -0.01832
  0-1A  -> 15-1A    6.891290   55582.0   179.9   0.445022600   2.63587   1.50368   0.22105  -0.57093
  0-1A  -> 16-1A    6.935521   55938.8   178.8   0.001192614   0.00702   0.07727  -0.00606  -0.03181
  0-1A  -> 17-1A    7.011097   56548.3   176.8   0.005958104   0.03469   0.01782   0.17766   0.05297
  0-1A  -> 18-1A    7.152712   57690.5   173.3   0.578255019   3.29982  -1.74845   0.26245  -0.41695
  0-1A  -> 19-1A    7.230918   58321.3   171.5   0.000201249   0.00114   0.02110   0.00908   0.02466
  0-1A  -> 20-1A    7.321590   59052.6   169.3   0.130827381   0.72935   0.19087   0.37139  -0.74498
  0-1A  -> 21-1A    7.338301   59187.4   169.0   0.000532078   0.00296   0.02697   0.04228  -0.02108
  0-1A  -> 22-1A    7.424223   59880.4   167.0   0.389625078   2.14209   1.38261  -0.12718   0.46292

----------------------------------------------------------------------------------------------------
                     ABSORPTION SPECTRUM VIA TRANSITION VELOCITY DIPOLE MOMENTS    
----------------------------------------------------------------------------------------------------
     Transition      Energy     Energy  Wavelength fosc(P2)      P2        PX        PY        PZ   
                      (eV)      (cm-1)    (nm)                 (au**2)    (au)      (au)      (au)  
----------------------------------------------------------------------------------------------------
  0-1A  ->  1-1A    3.985675   32146.6   311.1   0.815351829   0.17914  -0.42246   0.00363   0.02561
  0-1A  ->  2-1A    4.262464   34379.1   290.9   0.000070591   0.00002  -0.00118  -0.00359  -0.00151
  0-1A  ->  3-1A    4.926626   39735.9   251.7   0.008964250   0.00243   0.02306  -0.01892   0.03930
  0-1A  ->  4-1A    4.938277   39829.9   251.1   0.005220757   0.00142   0.03763  -0.00078  -0.00214
  0-1A  ->  5-1A    5.008450   40395.9   247.5   0.001120960   0.00031  -0.01179  -0.00502   0.01206
  0-1A  ->  6-1A    5.573354   44952.1   222.5   0.065003071   0.01997  -0.12684  -0.02156   0.05847
  0-1A  ->  7-1A    5.869746   47342.7   211.2   0.008715655   0.00282   0.01668  -0.02147   0.04562
  0-1A  ->  8-1A    6.037471   48695.5   205.4   0.001636285   0.00054  -0.01709   0.00813  -0.01365
  0-1A  ->  9-1A    6.163481   49711.8   201.2   0.000144802   0.00005  -0.00608  -0.00042  -0.00346
  0-1A  -> 10-1A    6.394570   51575.7   193.9   0.020149206   0.00710  -0.08194  -0.00614   0.01873
  0-1A  -> 11-1A    6.527017   52643.9   190.0   0.000198451   0.00007   0.00744  -0.00362  -0.00171
  0-1A  -> 12-1A    6.619470   53389.6   187.3   0.048309288   0.01763  -0.13078   0.01313  -0.01878
  0-1A  -> 13-1A    6.775965   54651.9   183.0   0.000621202   0.00023   0.00228  -0.01371  -0.00623
  0-1A  -> 14-1A    6.848734   55238.8   181.0   0.022996929   0.00868   0.09278   0.00117  -0.00848
  0-1A  -> 15-1A    6.891290   55582.0   179.9   0.199411322   0.07575  -0.26498  -0.02520   0.07000
  0-1A  -> 16-1A    6.935521   55938.8   178.8   0.000588541   0.00023  -0.01460   0.00012   0.00343
  0-1A  -> 17-1A    7.011097   56548.3   176.8   0.001728567   0.00067  -0.00371  -0.02408  -0.00863
  0-1A  -> 18-1A    7.152712   57690.5   173.3   0.257685323   0.10160   0.31025  -0.04082   0.06068
  0-1A  -> 19-1A    7.230918   58321.3   171.5   0.000289274   0.00012  -0.00444  -0.00826  -0.00523
  0-1A  -> 20-1A    7.321590   59052.6   169.3   0.009147475   0.00369   0.03759  -0.02384   0.04136
  0-1A  -> 21-1A    7.338301   59187.4   169.0   0.000253921   0.00010  -0.00196  -0.00982   0.00154
  0-1A  -> 22-1A    7.424223   59880.4   167.0   0.108480725   0.04440  -0.20973  -0.00971   0.01769

------------------------------------------------------------------------------------------
                     CD SPECTRUM VIA TRANSITION ELECTRIC DIPOLE MOMENTS    
------------------------------------------------------------------------------------------
     Transition      Energy     Energy  Wavelength    R        MX        MY        MZ   
                      (eV)      (cm-1)    (nm)   (1e40*cgs)   (au)      (au)      (au)  
------------------------------------------------------------------------------------------
  0-1A  ->  1-1A    3.985675   32146.6   311.1   -0.59886   0.01636   0.43166   0.20011
  0-1A  ->  2-1A    4.262464   34379.1   290.9    1.03664  -0.00846  -0.07669   0.18937
  0-1A  ->  3-1A    4.926626   39735.9   251.7   -1.39611   0.00722   0.16287   0.07382
  0-1A  ->  4-1A    4.938277   39829.9   251.1   -1.64117  -0.00166   0.09869   0.03001
  0-1A  ->  5-1A    5.008450   40395.9   247.5   -0.18887  -0.00472  -0.13530  -0.06535
  0-1A  ->  6-1A    5.573354   44952.1   222.5   -4.65311   0.01371   0.28105   0.12412
  0-1A  ->  7-1A    5.869746   47342.7   211.2   -3.02831  -0.00587   0.02889  -0.00187
  0-1A  ->  8-1A    6.037471   48695.5   205.4    4.26324   0.00841   0.25226   0.11364
  0-1A  ->  9-1A    6.163481   49711.8   201.2    5.66858  -0.00768  -0.08095  -0.03982
  0-1A  -> 10-1A    6.394570   51575.7   193.9    2.39876  -0.00723  -0.04239  -0.03470
  0-1A  -> 11-1A    6.527017   52643.9   190.0   -1.48355  -0.01451   0.09457  -0.21167
  0-1A  -> 12-1A    6.619470   53389.6   187.3   -2.37687   0.00456   0.00693   0.00911
  0-1A  -> 13-1A    6.775965   54651.9   183.0   -0.57184   0.05162  -0.05501   0.10936
  0-1A  -> 14-1A    6.848734   55238.8   181.0   -1.76199  -0.00718  -0.04962  -0.01842
  0-1A  -> 15-1A    6.891290   55582.0   179.9   -2.00222   0.01207   0.16937   0.08992
  0-1A  -> 16-1A    6.935521   55938.8   178.8   -0.36457   0.03227  -0.00849   0.05569
  0-1A  -> 17-1A    7.011097   56548.3   176.8    0.90016   0.02758  -0.08027   0.22389
  0-1A  -> 18-1A    7.152712   57690.5   173.3    0.12348  -0.01321  -0.34648  -0.16208
  0-1A  -> 19-1A    7.230918   58321.3   171.5    1.60611  -0.10467   0.04768  -0.06613
  0-1A  -> 20-1A    7.321590   59052.6   169.3   10.00870  -0.02828  -0.60036  -0.27804
  0-1A  -> 21-1A    7.338301   59187.4   169.0   -2.91052   0.05575   0.04681  -0.12765
  0-1A  -> 22-1A    7.424223   59880.4   167.0   -3.57586  -0.00797   0.10550   0.06916

------------------------------------------------------------------------------------------
                     CD SPECTRUM VIA TRANSITION VELOCITY DIPOLE MOMENTS    
------------------------------------------------------------------------------------------
     Transition      Energy     Energy  Wavelength    R        MX        MY        MZ   
                      (eV)      (cm-1)    (nm)   (1e40*cgs)   (au)      (au)      (au)  
------------------------------------------------------------------------------------------
  0-1A  ->  1-1A    3.985675   32146.6   311.1   -0.70889   0.01636   0.43166   0.20011
  0-1A  ->  2-1A    4.262464   34379.1   290.9   -0.00161  -0.00846  -0.07669   0.18937
  0-1A  ->  3-1A    4.926626   39735.9   251.7   -0.03734   0.00722   0.16287   0.07382
  0-1A  ->  4-1A    4.938277   39829.9   251.1   -0.53028  -0.00166   0.09869   0.03001
  0-1A  ->  5-1A    5.008450   40395.9   247.5   -0.13540  -0.00472  -0.13530  -0.06535
  0-1A  ->  6-1A    5.573354   44952.1   222.5   -1.24635   0.01371   0.28105   0.12412
  0-1A  ->  7-1A    5.869746   47342.7   211.2   -1.75648  -0.00587   0.02889  -0.00187
  0-1A  ->  8-1A    6.037471   48695.5   205.4    0.75976   0.00841   0.25226   0.11364
  0-1A  ->  9-1A    6.163481   49711.8   201.2    0.45511  -0.00768  -0.08095  -0.03982
  0-1A  -> 10-1A    6.394570   51575.7   193.9    0.40641  -0.00723  -0.04239  -0.03470
  0-1A  -> 11-1A    6.527017   52643.9   190.0   -0.17500  -0.01451   0.09457  -0.21167
  0-1A  -> 12-1A    6.619470   53389.6   187.3   -1.31121   0.00456   0.00693   0.00911
  0-1A  -> 13-1A    6.775965   54651.9   183.0    0.36148   0.05162  -0.05501   0.10936
  0-1A  -> 14-1A    6.848734   55238.8   181.0   -1.06392  -0.00718  -0.04962  -0.01842
  0-1A  -> 15-1A    6.891290   55582.0   179.9   -2.17940   0.01207   0.16937   0.08992
  0-1A  -> 16-1A    6.935521   55938.8   178.8   -0.52051   0.03227  -0.00849   0.05569
  0-1A  -> 17-1A    7.011097   56548.3   176.8   -0.18783   0.02758  -0.08027   0.22389
  0-1A  -> 18-1A    7.152712   57690.5   173.3    0.37874  -0.01321  -0.34648  -0.16208
  0-1A  -> 19-1A    7.230918   58321.3   171.5    0.73894  -0.10467   0.04768  -0.06613
  0-1A  -> 20-1A    7.321590   59052.6   169.3    3.06231  -0.02828  -0.60036  -0.27804
  0-1A  -> 21-1A    7.338301   59187.4   169.0   -1.33776   0.05575   0.04681  -0.12765
  0-1A  -> 22-1A    7.424223   59880.4   167.0    3.23243  -0.00797   0.10550   0.06916

Total run time:      879.178 sec

           *** ORCA-CIS/TD-DFT FINISHED WITHOUT ERROR ***
-----------------------
CIS/TD-DFT TOTAL ENERGY
-----------------------

    E(SCF)  =   -999.823704811 Eh
    DE(CIS) =      0.146470868 Eh (Root  1)
    ----------------------------- ---------
    E(tot)  =   -999.677233942 Eh


Maximum memory used throughout the entire CIS-calculation: 797.2 MB
=> NOW LEAVING ORCA_CIS

-------------------------   --------------------
FINAL SINGLE POINT ENERGY      -999.677233942323
-------------------------   --------------------



           ************************************************************
           *        Program running with 4 parallel MPI-processes     *
           *              working on a common directory               *
           ************************************************************

------------------------------------------------------------------------------
                              ORCA PROPERTY CALCULATIONS
------------------------------------------------------------------------------

GBWName                                 ... td.gbw
Number of atoms                         ...     45
Number of basis functions               ...    432
Max core memory                         ...   2500 MB

Electric properties:
Dipole moment                           ... YES
Quadrupole moment                       ...  NO
Static polarizability (Dipole/Dipole)   ...  NO
Static polarizability (Dipole/Quad.)    ...  NO
Static polarizability (Quad./Quad.)     ...  NO
Static polarizability (Velocity)        ...  NO
Static hyperpolarizability              ...  NO

Atomic electric properties:
Dipole moment                           ...  NO
Quadrupole moment                       ...  NO
Static polarizability                   ...  NO

Choice of electric origin               ... Center of mass
Position of electric origin             ...     1.210340     0.162023    -0.498887

General magnetic properties:
Magnetizability                         ...  NO

EPR properties:
g-Tensor (aka g-matrix)                 ...  NO
Zero-Field splitting spin-orbit         ...  NO
Zero-field splitting spin-spin          ...  NO
Hyperfine couplings                     ...  NO (   0 nuclei)
Quadrupole couplings                    ...  NO (   0 nuclei)
Contact density                         ...  NO (   0 nuclei)

NMR properties:
Chemical shifts                         ...  NO (   0 nuclei)
Spin-rotation constants                 ...  NO (   0 nuclei)
Spin-spin couplings                     ...  NO (   0 nuclei,    0 pairs)

Choice of magnetic origin               ... GIAO
Position of magnetic origin             ...     0.000000     0.000000     0.000000

Properties with geometric perturbations:
SCF Hessian                             ...  NO
IR spectrum                             ...  NO
VCD spectrum                            ...  NO
X-ray spectroscopy properties:
SCF XES/XAS/RIXS spectra                ...  NO

SCF SOC stabilization energy            ...  NO
Diagonal Born-Oppenheimer correction    ...  NO

-------------
DIPOLE MOMENT
-------------

Method             : SCF
Type of density    : Electron Density
Multiplicity       :   1
Irrep              :   0
Energy             :  -999.8237048107196188 Eh
Basis              : AO
                                X                 Y                 Z
Electronic contribution:     26.873804164       3.667927857      -9.608139499
Nuclear contribution   :    -26.622495753      -4.331659261      11.023216910
                        -----------------------------------------
Total Dipole Moment    :      0.251308411      -0.663731404       1.415077411
                        -----------------------------------------
Magnitude (a.u.)       :      1.583079080
Magnitude (Debye)      :      4.023867240



--------------------
Rotational spectrum 
--------------------
 
Rotational constants in cm-1:             0.024910             0.002523             0.002328 
Rotational constants in MHz :           746.791397            75.639829            69.799933 

Dipole components along the rotational axes: 
x,y,z [a.u.] :     0.220655    -1.567591    -0.010385 
x,y,z [Debye]:     0.560860    -3.984501    -0.026397 

 

Dipole moment calculation done in   0.1 sec 

Maximum memory used throughout the entire PROP-calculation: 22.7 MB

--------------------------------
SUGGESTED CITATIONS FOR THIS RUN
--------------------------------

Below you find a list of papers that are relevant to this ORCA run
We neither can nor want to force you to cite these papers, but we appreciate if you do
You receive ORCA, which is the product of decades of hard work by many enthusiastic individuals, for free
The only thing we kindly ask in return is that you cite our papers,
We deeply appreciate it, if you show your appreciation for ORCA by not just citing the generic ORCA reference.

Please note that relegating all ORCA citations to the supporting information does *not* help us.
SI sections are not indexed - citations you put there will not count into any citation statistics
But we need these citations in order to attract the funding resources that allow us to do what we are doing

Therefore, if you are a happy ORCA user, please consider citing a few of the papers listed below in the main body of your paper

In addition to the list printed below, the program has created the file td.bibtex that contains the list in bibtex format
You can import this file easily into all common literature databanks and citation aid programs

It goes without saying that in many instances, there are alternative algorithms to achieve similar
results as the ones you have gotten from ORCA. It is, of course, also the case that in some instances
ORCA just re-implements algorithms worked out by others. We are fully aware of that and we are also
fully appreciative of our colleagues work. Hence this citation list should not be read as indicating
that the listed papers, which are focused on our own work, are the only ones worth citing. It simply
meant to make it easier for users to cite ORCA specific papers. It is not a substitute for doing your
own literature research and citing the relevant literature in a scientifically appropriate manner.

List of essential papers. We consider these as the minimum necessary citations

  1. Neese, F.
     Software update: the ORCA program system, version 6.0
     WIRES Comput. Molec. Sci. 2025 15(1), e70019
     doi.org/10.1002/wcms.70019

List of papers to cite with high priority. The work reported in these papers was absolutely
necessary for this run to complete.
Our perspective: the developers of density functionals and basis sets usually get cited in chemistry papers
Good! But without the algorithms to do something with them, the functionals or basis sets would not do anything.
Hence, in our opinion, the algorithm design and method developments papers are equally worthy of getting cited

  1. Neese, F.; Olbrich, G.
     Efficient use of the resolution of the identity approximation in time-dependent density functional calculations with hybrid density functionals
     Chem. Phys. Lett. 2002 362 , 170-178
     doi.org/10.1016/s0009-2614(02)01053-9
  2. Neese, F.
     An improvement of the resolution of the identity approximation for the formation of the Coulomb matrix
     J. Comp. Chem. 2003 24(14), 1740-1747
     doi.org/10.1002/jcc.10318
  3. Neese, F.; Wennmohs, F.; Hansen, A.; Becker, U.
     Efficient, approximate and parallel Hartree-Fock and hybrid DFT calculations. A 'chain-of-spheres' algorithm for the Hartree-Fock exchange
     Chem. Phys. 2009 356(1-3), 98-109
     doi.org/10.1016/j.chemphys.2008.10.036
  4. Garcia-Rates, M.; Neese, F.
     Effect of the Solute Cavity on the Solvation Energy and its Derivatives within the Framework of the Gaussian Charge Scheme
     J. Comput. Chem. 2020 41 , 922-939
     doi.org/10.1002/jcc.26139
  5. Helmich-Paris, B.; de Souza, B.; Neese, F.; Izsák, R.
     An improved chain of spheres for exchange algorithm
     J. Chem. Phys. 2021 155(10), 104109
     doi.org/10.1063/5.0058766
  6. Neese, F.
     The SHARK Integral Generation and Digestion System
     J. Comp. Chem. 2022 44(3), 381
     doi.org/10.1002/jcc.26942

List of suggested additional citations. These are papers that are important in the 'surrounding' of 
of this run, or papers that preceded the highly important papers. If you like your results we are grateful for a citation.

  1. Izsak, R.; Neese, F.
     An overlap fitted chain of spheres exchange method
     J. Chem. Phys. 2011 135 , 144105
     doi.org/10.1063/1.3646921
  2. Izsak, R.; Hansen, A.; Neese, F.
     The resolution of identity and chain of spheres approximations for the LPNO-CCSD singles Fock term
     Molec. Phys. 2012 110 , 2413-2417
     doi.org/10.1080/00268976.2012.687466
  3. Neese, F.
     The ORCA program system
     WIRES Comput. Molec. Sci. 2012 2(1), 73-78
     doi.org/10.1002/wcms.81
  4. Izsak, R.; Neese, F.; Klopper, W.
     Robust fitting techniques in the chain of spheres approximation to the Fock exchange: The role of the complementary space
     J. Chem. Phys. 2013 139 , 
     doi.org/10.1063/1.4819264
  5. Neese, F.
     Software update: the ORCA program system, version 4.0
     WIRES Comput. Molec. Sci. 2018 8(1), 1-6
     doi.org/10.1002/wcms.1327
  6. Neese, F.; Wennmohs, F.; Becker, U.; Riplinger, C.
     The ORCA quantum chemistry program package
     J. Chem. Phys. 2020 152(22), 224108
     doi.org/10.1063/5.0004608
  7. Neese, F.
     Software update: The ORCA program system—Version 5.0
     WIRES Comput. Molec. Sci. 2022 12(1), e1606
     doi.org/10.1002/wcms.1606

List of optional additional citations

  1. Neese, F.
     Approximate second-order SCF convergence for spin unrestricted wavefunctions
     Chem. Phys. Lett. 2000 325(1-3), 93-98
     doi.org/10.1016/s0009-2614(00)00662-x

Timings for individual modules:

Sum of individual times          ...     1349.311 sec (=  22.489 min)
Startup calculation              ...        9.048 sec (=   0.151 min)   0.7 %
SCF iterations                   ...      458.707 sec (=   7.645 min)  34.0 %
Property integrals               ...        1.018 sec (=   0.017 min)   0.1 %
Property calculations            ...        0.739 sec (=   0.012 min)   0.1 %
CIS module                       ...      879.799 sec (=  14.663 min)  65.2 %
                             ****ORCA TERMINATED NORMALLY****
TOTAL RUN TIME: 0 days 0 hours 22 minutes 30 seconds 788 msec
