
                                 *****************
                                 * O   R   C   A *
                                 *****************

                                            #,                                       
                                            ###                                      
                                            ####                                     
                                            #####                                    
                                            ######                                   
                                           ########,                                 
                                     ,,################,,,,,                         
                               ,,#################################,,                 
                          ,,##########################################,,             
                       ,#########################################, ''#####,          
                    ,#############################################,,   '####,        
                  ,##################################################,,,,####,       
                ,###########''''           ''''###############################       
              ,#####''   ,,,,##########,,,,          '''####'''          '####       
            ,##' ,,,,###########################,,,                        '##       
           ' ,,###''''                  '''############,,,                           
         ,,##''                                '''############,,,,        ,,,,,,###''
      ,#''                                            '''#######################'''  
     '                                                          ''''####''''         
             ,#######,   #######,   ,#######,      ##                                
            ,#'     '#,  ##    ##  ,#'     '#,    #''#        ,####,    ,#,          
            ##       ##  ##   ,#'  ##            #'  '#       #'       ,# #          
            ##       ##  #######   ##           ,######,      #####,      #          
            '#,     ,#'  ##    ##  '#,     ,#' ,#      #,     #,   #      #          
             '#######'   ##     ##  '#######'  #'      '#     '####' #    #          



                #########################################################
                #                        -***-                          #
                #          Department of theory and spectroscopy        #
                #                                                       #
                #                      Frank Neese                      #
                #                                                       #
                #     Directorship, Architecture, Infrastructure        #
                #                    SHARK, DRIVERS                     #
                #        Core code/Algorithms in most modules           #
                #                                                       #
                #        Max Planck Institute fuer Kohlenforschung      #
                #                Kaiser Wilhelm Platz 1                 #
                #                 D-45470 Muelheim/Ruhr                 #
                #                      Germany                          #
                #                                                       #
                #                  All rights reserved                  #
                #                        -***-                          #
                #########################################################


                         Program Version 6.1.1  -  RELEASE   -


 With contributions from (in alphabetic order):
[Max-Planck-Institut fuer Kohlenforschung]                               
  Daniel Aravena         : Magnetic Suceptibility                        
  Michael Atanasov       : Ab Initio Ligand Field Theory (pilot matlab implementation)
  Alexander A. Auer      : GIAO ZORA, VPT2 properties, NMR spectrum      
  Ute Becker             : All parallelization in ORCA, NUMFREQ, NUMCALC 
  Giovanni Bistoni       : ED, misc. LED, open-shell LED, HFLD           
  Dmytro Bykov           : pre 5.0 version of the SCF Hessian            
  Marcos Casanova-Páez   : Triplet and SCS-CIS(D). UHF-(DLPNO)-IP/EA/STEOM-CCSD. UHF-CVS-IP/STEOM-CCSD   
  Vijay G. Chilkuri      : MRCI spin determinant printing, contributions to CSF-ICE 
  Pauline Colinet        : FMM embedding                                 
  Dipayan Datta          : RHF DLPNO-CCSD density                        
  Achintya Kumar Dutta   : EOM-CC, STEOM-CC                              
  Nicolas Foglia         : Exact transition moments, OPA infrastructure, MCD improvements    
  Dmitry Ganyushin       : Spin-Orbit,Spin-Spin,Magnetic field MRCI      
  Miquel Garcia-Rates    : C-PCM and meta-GGA Hessian, CCSD/C-PCM, Gaussian charge scheme 
  Tiago L. C. Gouveia    : GS-ROHF, GS-ROCIS                             
  Yang Guo               : DLPNO-NEVPT2, F12-NEVPT2, CIM, IAO-localization        
  Andreas Hansen         : Spin unrestricted coupled pair/coupled cluster methods 
  Ingolf Harden          : AUTO-CI MPn and infrastructure                
  Benjamin Helmich-Paris : MC-RPA, TRAH-(SCF,CASSCF), AVAS, COSX integrals, SCF dyn. polar., MC-PDFT, srDFT 
  Lee Huntington         : MR-EOM, pCC                                   
  Robert Izsak           : Overlap fitted RIJCOSX, COSX-SCS-MP3, EOM     
  Riya Kayal             : Wick's Theorem for AUTO-CI, AUTO-CI UHF-CCSDT 
  Emily Kempfer          : AUTO-CI RHF CISDT and CCSDT, approximate NEVPT4
  Christian Kollmar      : KDIIS, OOCD, Brueckner-CCSD(T), CCSD density, CASPT2, CASPT2-K, improved NEVPT2 
  Axel Koslowski         : Symmetry handling                             
  Simone Kossmann        : meta-GGA functionals, TD-DFT gradient, OOMP2, (MP2 Hessian; deprecated post 5.0) 
  Lucas Lang             : DCDCAS, Hyperfine gauge corrections, ICE-SOC+SSC
  Marvin Lechner         : AUTO-CI (C++ implementation), FIC-MRCC        
  Spencer Leger          : CASSCF response                               
  Dagmar Lenk            : GEPOL surface, SMD, ORCA-2-JSON               
  Dimitrios Liakos       : Extrapolation schemes; Compound Job, Property file
  Dimitrios Manganas     : Further ROCIS development; embedding schemes. LFT, Crystal Embedding 
  Dimitrios Pantazis     : SARC Basis sets                               
  Anastasios Papadopoulos: AUTO-CI, single reference methods and gradients 
  Taras Petrenko         : pre 6.0 DFT Hessian and TD-DFT gradient,  ECA, NRVS 
  Petra Pikulova         : Analytic Raman intensities                    
  Peter Pinski           : DLPNO-MP2, DLPNO-MP2 Gradient                 
  Shashank Vittal Rao    : ES-AILFT, MagRelax                            
  Christoph Reimann      : Effective Core Potentials                     
  Marius Retegan         : Local ZFS, SOC                                
  Christoph Riplinger    : Optimizer, TS searches, QM/MM, DLPNO-CCSD(T), (RO)-DLPNO pert. Triples 
  Michael Roemelt        : Original ROCIS implementation, recursive CI coupling coefficients
  Masaaki Saitow         : Open-shell DLPNO-CCSD energy and density      
  Barbara Sandhoefer     : DKH picture change effects                    
  Yorick L. A. Schmerwitz: GMF and freeze-and-release deltaSCF, NEB S-IDPP initial path                    
  Kantharuban Sivalingam : CASSCF convergence/infrastructure, NEVPT2, NEVPT3, NEVPT4(SD), FIC-MRCI and CEPA variants
  Bernardo de Souza      : ESD, SOC TD-DFT                               
  Georgi L. Stoychev     : AutoAux, RI-MP2 NMR, DLPNO-MP2 response, X2C  
  Van Anh Tran           : RI-MP2 g-tensors                              
  Willem Van den Heuvel  : Paramagnetic NMR                              
  Zikuan Wang            : NOTCH, Electric field optimization            
  Frank Wennmohs         : Technical directorship and infrastructure     
  Hang Xu                : AUTO-CI-Response properties                   
                                                                         
[FACCTs GmbH]                                                            
  Markus Bursch, Nicolas Foglia, Miquel Garcia-Rates, Ingolf Harden, Hagen Neugebauer, Anastasios Papadopoulos, 
  Christoph Riplinger, Bernardo de Souza, Georgi L. Stoychev                                                    
                                                                 
  APM, various basis sets, CI-OPT, improved COSX, DLPNO-Multilevel,           
  DOCKER, DRACO, updates on ESD, Fragmentator, GOAT, IRC, LR-CPCM, L-BFGS, MBIS, meta-GGA TD-DFT gradient, ML-optimized integration grids, 
  MM, NACMEs, nearIR, NEB, NEB-TS, NL-DFT gradient (VV10), 2- and 3-layer-ONIOM, interface openCOSMO-RS, QMMM,   
  Crystal-QMMM, RESP, rigid body optimization, SF, symmetry and pop. for TD-DFT, various functionals, SOLVATOR                                   
                                                                         
[Other institutions]                                                     
  V. Asgeirsson          : NEB                                           
  Christoph Bannwarth    : sTDA-DFT, sTD-DFT, PBEh-3c, B97-3c, D3        
  Giovanni Bistoni       : ETS/NOCV, ADLD/ADEX, COVALED                  
  Martin Brehm           : Molecular dynamics                            
  Ronald Cardenas        : ETS/NOCV                                      
  Martina Colucci        : COVALED                                       
  Sebastian Ehlert       : rSCAN, r2SCAN, r2SCAN-3c, D4, dhf basis sets  
  Marvin Friede          : D4 for Fr, Ra, Ac-Lr                          
  Lars Goerigk           : TD-DFT with DH, B97 family of functionals     
  Stefan Grimme          : VdW corrections, initial TS optimization, DFT functionals, gCP, sTDA/sTD-DF 
  Waldemar Hujo          : DFT-NL                                        
  H. Jonsson             : NEB                                           
  Holger Kruse           : gCP                                           
  Marcel Mueller         : wB97X-3c, vDZP basis set                      
  Hagen Neugebauer       : wr2SCAN, Native XTB                           
  Gianluca Regni         : ADLD/ADEX                                     
  Tobias Risthaus        : pre 6.0 range-separated hybrid DFT and stability analysis
  Lukas Wittmann         : regularized MP2, r2SCAN double-hybrids, wr2SCAN        
                                                                         
We gratefully acknowledge several colleagues who have allowed us to      
interface, adapt or use parts of their codes:                            
  Ed Valeev, F. Pavosevic, A. Kumar             : LibInt (2-el integral package), F12 methods 
  Garnet Chan, S. Sharma, J. Yang, R. Olivares  : DMRG                   
  Ulf Ekstrom                                   : XCFun DFT Library      
  Mihaly Kallay                                 : mrcc  (arbitrary order and MRCC methods)
  Frank Weinhold                                : gennbo (NPA and NBO analysis)           
  Simon Mueller                                 : openCOSMO-RS                            
  Christopher J. Cramer and Donald G. Truhlar   : smd solvation model                     
  S Lehtola, MJT Oliveira, MAL Marques          : LibXC Library                           
  Liviu Ungur et al                             : ANISO software                          


 Your calculation uses the libint2 library for the computation of 2-el integrals
 For citations please refer to: http://libint.valeyev.net

 Your ORCA version has been built with support for libXC version: 7.0.0
 For citations please refer to: https://libxc.gitlab.io

 This ORCA versions uses:
   CBLAS   interface :  Fast vector & matrix operations
   LAPACKE interface :  Fast linear algebra routines
   Shared memory     :  Shared parallel matrices


  ***********************************
  * Starting time: Tue Jul 21 15:38:28 2026
  * Host name:     DESKTOP-19Q153E
  * Process ID:    19776
  * Working dir.:  C:\Users\ysm04\Documents\etc\uv_vis\calculations\01_dft_opt\diketo\diketo_c000
  ***********************************

NOTE: MaxCore=2500 MB was set to SCF,MP2,MDCI,CIPSI,MRCI,RASCI and CIS
      => If you want to overwrite this, your respective input block should be placed after the MaxCore statement
================================================================================

----- Orbital basis set information -----
Your calculation utilizes the basis: def2-SVP
   F. Weigend and R. Ahlrichs, Phys. Chem. Chem. Phys. 7, 3297 (2005).

----- AuxJ basis set information -----
Your calculation utilizes the auxiliary basis: def2/J
   H-Rn: F. Weigend, Phys. Chem. Chem. Phys. 8, 1057 (2006).
   Fr-Lr: K. Eichkorn, F. Weigend, O. Treutler, R. Ahlrichs; Theor. Chem. Acc. 97, 119 (1997).

================================================================================
                                        WARNINGS
                       Please study these warnings very carefully!
================================================================================


WARNING: Geometry Optimization
  ===> : Switching off AutoStart
         For restart on a previous wavefunction, please use MOREAD

================================================================================
                                       INPUT FILE
================================================================================
NAME = opt.inp
|  1> # geometry optimization: diketo / diketo_c000
|  2> ! B3LYP def2-SVP RIJCOSX def2/J TightSCF Opt CPCM(Ethanol)
|  3> %pal nprocs 4 end
|  4> %maxcore 2500
|  5> %scf
|  6>   MaxIter 300
|  7> end
|  8> * xyz 0 1
|  9> C     -4.9413530318     1.9642762762     0.2464522998
| 10> C     -4.4466744114     0.6180059208    -0.2908116584
| 11> C     -5.4995805166    -0.4497759399     0.0432756258
| 12> C     -4.2894274685     0.7361662341    -1.8146499107
| 13> C     -3.1154474651     0.2006997430     0.3099106634
| 14> C     -2.5272991369    -1.0017688011    -0.0853234135
| 15> C     -1.3199500461    -1.4289200363     0.4264477249
| 16> C     -0.6405004719    -0.6509156783     1.3667304012
| 17> C     -1.2262151328     0.5527597355     1.7685430841
| 18> C     -2.4354853463     0.9686723363     1.2519907875
| 19> C      0.6587575508    -1.0108459405     1.9522949461
| 20> O      1.2021993274    -0.3123034399     2.7916259914
| 21> C      1.3312830673    -2.2868455289     1.4686532058
| 22> C      1.8332934994    -2.1379243300     0.0379549930
| 23> O      1.2884858064    -2.7500269360    -0.8663543390
| 24> C      2.9625500817    -1.2350109059    -0.2055467128
| 25> C      3.3611731212    -1.0347698679    -1.5363529171
| 26> C      4.3938487487    -0.1883993832    -1.8484145388
| 27> C      5.0758679811     0.4971675268    -0.8339388492
| 28> O      6.0719292405     1.3112344189    -1.2405702875
| 29> C      6.7963953930     2.0553920641    -0.2774771423
| 30> C      4.6924672940     0.2995015634     0.4930240266
| 31> C      3.6531272337    -0.5556999499     0.7997616737
| 32> H     -5.0959409158     1.9240760836     1.3220193360
| 33> H     -4.2386425038     2.7608564300     0.0139852254
| 34> H     -5.8929177614     2.2097294258    -0.2199523425
| 35> H     -5.2337689512    -1.4153700170    -0.3772051902
| 36> H     -6.4655051287    -0.1558807311    -0.3608007967
| 37> H     -5.5946248322    -0.5602174445     1.1215291455
| 38> H     -3.5173821609     1.4630190428    -2.0587264477
| 39> H     -4.0152054695    -0.2151289829    -2.2614782033
| 40> H     -5.2260951700     1.0643413679    -2.2591885757
| 41> H     -3.0202152219    -1.6279450533    -0.8126803028
| 42> H     -0.9094246694    -2.3617903151     0.0756940615
| 43> H     -0.7037298537     1.1572367753     2.4958177467
| 44> H     -2.8414866613     1.9057750927     1.5941996954
| 45> H      2.1688458301    -2.5049088415     2.1316098884
| 46> H      0.6191784288    -3.1118396944     1.4942467745
| 47> H      2.8275677271    -1.5616525844    -2.3132094423
| 48> H      4.6999342114    -0.0288734856    -2.8700197532
| 49> H      7.5171754761     2.6377042316    -0.8480602918
| 50> H      6.1384667558     2.7282788794     0.2784666844
| 51> H      7.3243882883     1.3957848837     0.4159703723
| 52> H      5.1990350092     0.8099215843     1.2959525731
| 53> H      3.3809022554    -0.6737857489     1.8358656095
| 54> *
| 55> 
| 56>                          ****END OF INPUT****
================================================================================

                       *****************************
                       * Geometry Optimization Run *
                       *****************************

Geometry optimization settings:
Update method            Update   .... BFGS
Choice of coordinates    CoordSys .... (2022) Redundant Internals
Initial Hessian          InHess   .... Almloef's Model
Max. no of cycles        MaxIter  .... 135

Convergence Tolerances:
Energy Change            TolE     ....  5.0000e-06 Eh
Max. Gradient            TolMAXG  ....  3.0000e-04 Eh/bohr
RMS Gradient             TolRMSG  ....  1.0000e-04 Eh/bohr
Max. Displacement        TolMAXD  ....  4.0000e-03 bohr
RMS Displacement         TolRMSD  ....  2.0000e-03 bohr
Strict Convergence                .... False

------------------------------------------------------------------------------
                        ORCA OPTIMIZATION COORDINATE SETUP
------------------------------------------------------------------------------

The optimization will be done in redundant internal coordinates (2022)
Making redundant internal coordinates   ...  (2022 redundants) done
Evaluating the initial hessian          ...  (Almloef) done
Evaluating the coordinates              ...  done
Calculating the B-matrix                .... done
Calculating the G-matrix                .... done
The number of degrees of freedom        ....  219

    -----------------------------------------------------------------
                    Redundant Internal Coordinates


    -----------------------------------------------------------------
         Definition                    Initial Value    Approx d2E/dq
    -----------------------------------------------------------------
      1. B(C   1,C   0)                  1.5316         0.371383   
      2. B(C   2,C   1)                  1.5364         0.364956   
      3. B(C   3,C   1)                  1.5365         0.364786   
      4. B(C   4,C   1)                  1.5189         0.389067   
      5. B(C   5,C   4)                  1.3957         0.611785   
      6. B(C   6,C   5)                  1.3792         0.650199   
      7. B(C   7,C   6)                  1.3968         0.609363   
      8. B(C   8,C   7)                  1.3976         0.607543   
      9. B(C   9,C   8)                  1.3792         0.650126   
     10. B(C   9,C   4)                  1.3927         0.618604   
     11. B(C  10,C   7)                  1.4699         0.465926   
     12. B(O  11,C  10)                  1.2197         1.045956   
     13. B(C  12,C  10)                  1.5213         0.385697   
     14. B(C  13,C  12)                  1.5235         0.382585   
     15. B(O  14,C  13)                  1.2204         1.043607   
     16. B(C  15,C  13)                  1.4662         0.472230   
     17. B(C  16,C  15)                  1.4036         0.594387   
     18. B(C  17,C  16)                  1.3712         0.669513   
     19. B(C  18,C  17)                  1.4015         0.598864   
     20. B(O  19,C  18)                  1.3491         0.650215   
     21. B(C  20,O  19)                  1.4164         0.507886   
     22. B(C  21,C  18)                  1.3953         0.612720   
     23. B(C  22,C  21)                  1.3805         0.647068   
     24. B(C  22,C  15)                  1.3961         0.611023   
     25. B(H  23,C   0)                  1.0874         0.363606   
     26. B(H  24,C   0)                  1.0874         0.363590   
     27. B(H  25,C   0)                  1.0878         0.363055   
     28. B(H  26,C   2)                  1.0862         0.365161   
     29. B(H  27,C   2)                  1.0875         0.363419   
     30. B(H  28,C   2)                  1.0881         0.362684   
     31. B(H  29,C   3)                  1.0881         0.362634   
     32. B(H  30,C   3)                  1.0862         0.365171   
     33. B(H  31,C   3)                  1.0875         0.363420   
     34. B(H  32,C   5)                  1.0789         0.375033   
     35. B(H  33,C   6)                  1.0779         0.376508   
     36. B(H  34,C   8)                  1.0804         0.372996   
     37. B(H  35,C   9)                  1.0771         0.377601   
     38. B(H  36,C  12)                  1.0902         0.359812   
     39. B(H  37,C  12)                  1.0901         0.359940   
     40. B(H  38,C  16)                  1.0797         0.373927   
     41. B(H  39,C  17)                  1.0783         0.375862   
     42. B(H  40,C  20)                  1.0882         0.362491   
     43. B(H  41,C  20)                  1.0930         0.356110   
     44. B(H  42,C  20)                  1.0930         0.356106   
     45. B(H  43,C  21)                  1.0779         0.376490   
     46. B(H  44,C  22)                  1.0778         0.376664   
     47. A(H  23,C   0,H  24)          109.2947         0.291725   
     48. A(C   1,C   0,H  25)          109.2976         0.324441   
     49. A(H  23,C   0,H  25)          107.9444         0.291657   
     50. A(H  24,C   0,H  25)          107.9601         0.291655   
     51. A(C   1,C   0,H  23)          111.1248         0.324522   
     52. A(C   1,C   0,H  24)          111.1130         0.324519   
     53. A(C   0,C   1,C   4)          112.6950         0.365518   
     54. A(C   2,C   1,C   4)          108.8862         0.364427   
     55. A(C   2,C   1,C   3)          109.8313         0.360439   
     56. A(C   3,C   1,C   4)          108.8849         0.364398   
     57. A(C   0,C   1,C   3)          108.2616         0.361514   
     58. A(C   0,C   1,C   2)          108.2572         0.361543   
     59. A(H  26,C   2,H  27)          108.2861         0.291899   
     60. A(C   1,C   2,H  27)          109.8822         0.323565   
     61. A(C   1,C   2,H  28)          110.2372         0.323458   
     62. A(C   1,C   2,H  26)          111.4660         0.323819   
     63. A(H  27,C   2,H  28)          108.5457         0.291586   
     64. A(H  26,C   2,H  28)          108.3468         0.291806   
     65. A(H  29,C   3,H  30)          108.2785         0.291801   
     66. A(C   1,C   3,H  30)          111.4982         0.323796   
     67. A(C   1,C   3,H  29)          110.2709         0.323426   
     68. A(H  29,C   3,H  31)          108.5330         0.291580   
     69. A(C   1,C   3,H  31)          109.9053         0.323541   
     70. A(H  30,C   3,H  31)          108.2752         0.291900   
     71. A(C   5,C   4,C   9)          117.4441         0.432850   
     72. A(C   1,C   4,C   5)          119.6050         0.398590   
     73. A(C   1,C   4,C   9)          122.9509         0.399368   
     74. A(C   4,C   5,H  32)          119.8934         0.354544   
     75. A(C   6,C   5,H  32)          118.0570         0.358230   
     76. A(C   4,C   5,C   6)          122.0496         0.436749   
     77. A(C   5,C   6,H  33)          118.7327         0.358469   
     78. A(C   7,C   6,H  33)          121.0543         0.354542   
     79. A(C   5,C   6,C   7)          120.2067         0.436437   
     80. A(C   6,C   7,C   8)          117.9937         0.431142   
     81. A(C   8,C   7,C  10)          117.8265         0.410977   
     82. A(C   6,C   7,C  10)          124.1772         0.411195   
     83. A(C   7,C   8,H  34)          118.2100         0.353800   
     84. A(C   7,C   8,C   9)          121.2979         0.436193   
     85. A(C   9,C   8,H  34)          120.4915         0.357891   
     86. A(C   8,C   9,H  35)          118.2866         0.358639   
     87. A(C   4,C   9,H  35)          120.7064         0.355623   
     88. A(C   4,C   9,C   8)          121.0068         0.437614   
     89. A(O  11,C  10,C  12)          120.1426         0.434988   
     90. A(C   7,C  10,C  12)          118.0017         0.379510   
     91. A(C   7,C  10,O  11)          121.8516         0.450108   
     92. A(C  13,C  12,H  36)          109.7219         0.325549   
     93. A(C  10,C  12,H  36)          108.3045         0.325983   
     94. A(H  36,C  12,H  37)          109.6456         0.290783   
     95. A(C  10,C  12,C  13)          111.2368         0.366836   
     96. A(C  13,C  12,H  37)          108.1357         0.325568   
     97. A(C  10,C  12,H  37)          109.7868         0.326002   
     98. A(O  14,C  13,C  15)          121.9820         0.451024   
     99. A(C  12,C  13,C  15)          118.0302         0.379861   
    100. A(C  12,C  13,O  14)          119.9832         0.434179   
    101. A(C  13,C  15,C  22)          124.1276         0.412375   
    102. A(C  13,C  15,C  16)          117.6492         0.410361   
    103. A(C  16,C  15,C  22)          118.2200         0.429660   
    104. A(C  15,C  16,C  17)          121.1806         0.436782   
    105. A(C  17,C  16,H  38)          120.6406         0.359838   
    106. A(C  15,C  16,H  38)          118.1777         0.352640   
    107. A(C  16,C  17,C  18)          120.2442         0.437373   
    108. A(C  18,C  17,H  39)          118.3761         0.353396   
    109. A(C  16,C  17,H  39)          121.3793         0.360155   
    110. A(O  19,C  18,C  21)          125.0983         0.434009   
    111. A(C  17,C  18,C  21)          119.0363         0.430454   
    112. A(C  17,C  18,O  19)          115.8654         0.432227   
    113. A(C  18,O  19,C  20)          119.3210         0.416941   
    114. A(H  40,C  20,H  42)          109.6102         0.290632   
    115. A(O  19,C  20,H  42)          111.1865         0.338553   
    116. A(H  40,C  20,H  41)          109.6310         0.290633   
    117. A(O  19,C  20,H  41)          111.1864         0.338554   
    118. A(O  19,C  20,H  40)          105.2721         0.339559   
    119. A(H  41,C  20,H  42)          109.8513         0.289824   
    120. A(C  22,C  21,H  43)          118.7947         0.358172   
    121. A(C  18,C  21,H  43)          120.8107         0.354869   
    122. A(C  18,C  21,C  22)          120.3946         0.436489   
    123. A(C  21,C  22,H  44)          118.1419         0.358200   
    124. A(C  15,C  22,H  44)          120.9315         0.354730   
    125. A(C  15,C  22,C  21)          120.9214         0.436271   
    126. D(C   2,C   1,C   0,H  24)   -178.6832         0.011021   
    127. D(C   3,C   1,C   0,H  24)    -59.6683         0.011021   
    128. D(C   2,C   1,C   0,H  25)    -59.6431         0.011021   
    129. D(C   3,C   1,C   0,H  23)    178.3999         0.011021   
    130. D(C   2,C   1,C   0,H  23)     59.3850         0.011021   
    131. D(C   3,C   1,C   0,H  25)     59.3718         0.011021   
    132. D(H  27,C   2,C   1,C   4)    178.7416         0.010666   
    133. D(H  26,C   2,C   1,C   0)    175.9525         0.010666   
    134. D(H  26,C   2,C   1,C   4)    -61.2104         0.010666   
    135. D(H  27,C   2,C   1,C   3)    -62.1131         0.010666   
    136. D(H  27,C   2,C   1,C   0)     55.9044         0.010666   
    137. D(H  26,C   2,C   1,C   3)     57.9350         0.010666   
    138. D(H  29,C   3,C   1,C   2)   -177.7976         0.010657   
    139. D(H  29,C   3,C   1,C   0)     64.1877         0.010657   
    140. D(H  29,C   3,C   1,C   4)    -58.6514         0.010657   
    141. D(H  30,C   3,C   1,C   4)     61.6676         0.010657   
    142. D(H  30,C   3,C   1,C   2)    -57.4786         0.010657   
    143. D(H  30,C   3,C   1,C   0)   -175.4933         0.010657   
    144. D(C   9,C   4,C   1,C   0)      0.3214         0.011265   
    145. D(C   5,C   4,C   1,C   2)     60.2415         0.011265   
    146. D(C   5,C   4,C   1,C   3)    -59.4930         0.011265   
    147. D(C   9,C   4,C   1,C   2)   -119.8090         0.011265   
    148. D(C   5,C   4,C   1,C   0)   -179.6281         0.011265   
    149. D(H  32,C   5,C   4,C   9)    179.9730         0.025858   
    150. D(H  32,C   5,C   4,C   1)     -0.0748         0.025858   
    151. D(C   6,C   5,C   4,C   9)     -0.0050         0.025858   
    152. D(C   6,C   5,C   4,C   1)    179.9472         0.025858   
    153. D(H  33,C   6,C   5,H  32)      0.6571         0.029437   
    154. D(H  33,C   6,C   5,C   4)   -179.3646         0.029437   
    155. D(C   7,C   6,C   5,H  32)    179.7486         0.029437   
    156. D(C   7,C   6,C   5,C   4)     -0.2731         0.029437   
    157. D(C  10,C   7,C   6,H  33)      0.0809         0.025642   
    158. D(C  10,C   7,C   6,C   5)   -178.9892         0.025642   
    159. D(C   8,C   7,C   6,H  33)    179.4767         0.025642   
    160. D(C   8,C   7,C   6,C   5)      0.4066         0.025642   
    161. D(H  34,C   8,C   7,C  10)     -0.5742         0.025481   
    162. D(H  34,C   8,C   7,C   6)    179.9911         0.025481   
    163. D(C   9,C   8,C   7,C  10)    179.1573         0.025481   
    164. D(C   9,C   8,C   7,C   6)     -0.2774         0.025481   
    165. D(H  35,C   9,C   8,C   7)   -179.8595         0.029430   
    166. D(C   4,C   9,C   8,H  34)    179.7298         0.029430   
    167. D(C   4,C   9,C   8,C   7)      0.0044         0.029430   
    168. D(H  35,C   9,C   8,H  34)     -0.1342         0.029430   
    169. D(H  35,C   9,C   4,C   5)    179.9997         0.026472   
    170. D(H  35,C   9,C   4,C   1)      0.0492         0.026472   
    171. D(C   8,C   9,C   4,C   5)      0.1390         0.026472   
    172. D(C   8,C   9,C   4,C   1)   -179.8115         0.026472   
    173. D(C  12,C  10,C   7,C   8)   -177.1367         0.014784   
    174. D(C  12,C  10,C   7,C   6)      2.2599         0.014784   
    175. D(O  11,C  10,C   7,C   8)      2.1246         0.014784   
    176. D(O  11,C  10,C   7,C   6)   -178.4787         0.014784   
    177. D(H  37,C  12,C  10,C   7)    -49.3081         0.011081   
    178. D(H  36,C  12,C  10,O  11)     11.7247         0.011081   
    179. D(H  36,C  12,C  10,C   7)   -169.0009         0.011081   
    180. D(C  13,C  12,C  10,O  11)   -108.9320         0.011081   
    181. D(C  13,C  12,C  10,C   7)     70.3425         0.011081   
    182. D(C  15,C  13,C  12,H  36)    -50.7153         0.010913   
    183. D(C  15,C  13,C  12,C  10)     69.1034         0.010913   
    184. D(O  14,C  13,C  12,H  37)     10.4936         0.010913   
    185. D(O  14,C  13,C  12,H  36)    130.0473         0.010913   
    186. D(O  14,C  13,C  12,C  10)   -110.1340         0.010913   
    187. D(C  16,C  15,C  13,O  14)      3.3843         0.015184   
    188. D(C  16,C  15,C  13,C  12)   -175.8369         0.015184   
    189. D(C  22,C  15,C  13,O  14)   -177.2768         0.015184   
    190. D(C  22,C  15,C  13,C  12)      3.5019         0.015184   
    191. D(H  38,C  16,C  15,C  22)    179.9090         0.024331   
    192. D(H  38,C  16,C  15,C  13)     -0.7121         0.024331   
    193. D(C  17,C  16,C  15,C  22)     -0.4783         0.024331   
    194. D(C  17,C  16,C  15,C  13)    178.9006         0.024331   
    195. D(H  39,C  17,C  16,H  38)     -0.1255         0.031345   
    196. D(H  39,C  17,C  16,C  15)   -179.7287         0.031345   
    197. D(C  18,C  17,C  16,H  38)    179.6371         0.031345   
    198. D(C  18,C  17,C  16,C  15)      0.0339         0.031345   
    199. D(C  21,C  18,C  17,H  39)   -179.9078         0.024719   
    200. D(C  21,C  18,C  17,C  16)      0.3225         0.024719   
    201. D(O  19,C  18,C  17,H  39)      0.0800         0.024719   
    202. D(O  19,C  18,C  17,C  16)   -179.6897         0.024719   
    203. D(C  20,O  19,C  18,C  21)     -0.9708         0.031247   
    204. D(C  20,O  19,C  18,C  17)    179.0422         0.031247   
    205. D(H  42,C  20,O  19,C  18)     62.4755         0.020414   
    206. D(H  41,C  20,O  19,C  18)    -60.2648         0.020414   
    207. D(H  40,C  20,O  19,C  18)   -178.9070         0.020414   
    208. D(H  43,C  21,C  18,O  19)     -0.1587         0.025942   
    209. D(H  43,C  21,C  18,C  17)    179.8279         0.025942   
    210. D(C  22,C  21,C  18,O  19)    179.7867         0.025942   
    211. D(C  22,C  21,C  18,C  17)     -0.2266         0.025942   
    212. D(H  44,C  22,C  21,H  43)      0.5484         0.029134   
    213. D(H  44,C  22,C  21,C  18)   -179.3982         0.029134   
    214. D(C  15,C  22,C  21,H  43)    179.7188         0.029134   
    215. D(C  15,C  22,C  21,C  18)     -0.2278         0.029134   
    216. D(H  44,C  22,C  15,C  16)    179.7213         0.025790   
    217. D(H  44,C  22,C  15,C  13)      0.3860         0.025790   
    218. D(C  21,C  22,C  15,C  16)      0.5741         0.025790   
    219. D(C  21,C  22,C  15,C  13)   -178.7612         0.025790   
    -----------------------------------------------------------------

Number of atoms                         .... 45
Number of degrees of freedom            .... 219


         *************************************************************
         *                GEOMETRY OPTIMIZATION CYCLE   1            *
         *************************************************************
---------------------------------
CARTESIAN COORDINATES (ANGSTROEM)
---------------------------------
  C     -4.941353    1.964276    0.246452
  C     -4.446674    0.618006   -0.290812
  C     -5.499581   -0.449776    0.043276
  C     -4.289427    0.736166   -1.814650
  C     -3.115447    0.200700    0.309911
  C     -2.527299   -1.001769   -0.085323
  C     -1.319950   -1.428920    0.426448
  C     -0.640500   -0.650916    1.366730
  C     -1.226215    0.552760    1.768543
  C     -2.435485    0.968672    1.251991
  C      0.658758   -1.010846    1.952295
  O      1.202199   -0.312303    2.791626
  C      1.331283   -2.286846    1.468653
  C      1.833293   -2.137924    0.037955
  O      1.288486   -2.750027   -0.866354
  C      2.962550   -1.235011   -0.205547
  C      3.361173   -1.034770   -1.536353
  C      4.393849   -0.188399   -1.848415
  C      5.075868    0.497168   -0.833939
  O      6.071929    1.311234   -1.240570
  C      6.796395    2.055392   -0.277477
  C      4.692467    0.299502    0.493024
  C      3.653127   -0.555700    0.799762
  H     -5.095941    1.924076    1.322019
  H     -4.238643    2.760856    0.013985
  H     -5.892918    2.209729   -0.219952
  H     -5.233769   -1.415370   -0.377205
  H     -6.465505   -0.155881   -0.360801
  H     -5.594625   -0.560217    1.121529
  H     -3.517382    1.463019   -2.058726
  H     -4.015205   -0.215129   -2.261478
  H     -5.226095    1.064341   -2.259189
  H     -3.020215   -1.627945   -0.812680
  H     -0.909425   -2.361790    0.075694
  H     -0.703730    1.157237    2.495818
  H     -2.841487    1.905775    1.594200
  H      2.168846   -2.504909    2.131610
  H      0.619178   -3.111840    1.494247
  H      2.827568   -1.561653   -2.313209
  H      4.699934   -0.028873   -2.870020
  H      7.517175    2.637704   -0.848060
  H      6.138467    2.728279    0.278467
  H      7.324388    1.395785    0.415970
  H      5.199035    0.809922    1.295953
  H      3.380902   -0.673786    1.835866

----------------------------
CARTESIAN COORDINATES (A.U.)
----------------------------
  NO LB      ZA    FRAG     MASS         X           Y           Z
   0 C     6.0000    0    12.011   -9.337804    3.711944    0.465727
   1 C     6.0000    0    12.011   -8.402997    1.167862   -0.549554
   2 C     6.0000    0    12.011  -10.392701   -0.849953    0.081779
   3 C     6.0000    0    12.011   -8.105843    1.391153   -3.429191
   4 C     6.0000    0    12.011   -5.887342    0.379268    0.585646
   5 C     6.0000    0    12.011   -4.775903   -1.893069   -0.161238
   6 C     6.0000    0    12.011   -2.494344   -2.700268    0.805869
   7 C     6.0000    0    12.011   -1.210370   -1.230052    2.582746
   8 C     6.0000    0    12.011   -2.317211    1.044565    3.342062
   9 C     6.0000    0    12.011   -4.602400    1.830525    2.365920
  10 C     6.0000    0    12.011    1.244871   -1.910222    3.689303
  11 O     8.0000    0    15.999    2.271827   -0.590168    5.275409
  12 C     6.0000    0    12.011    2.515760   -4.321512    2.775352
  13 C     6.0000    0    12.011    3.464423   -4.040091    0.071725
  14 O     8.0000    0    15.999    2.434885   -5.196798   -1.637172
  15 C     6.0000    0    12.011    5.598408   -2.333832   -0.388427
  16 C     6.0000    0    12.011    6.351697   -1.955432   -2.903286
  17 C     6.0000    0    12.011    8.303171   -0.356023   -3.492997
  18 C     6.0000    0    12.011    9.592000    0.939510   -1.575916
  19 O     8.0000    0    15.999   11.474283    2.477874   -2.344338
  20 C     6.0000    0    12.011   12.843326    3.884128   -0.524356
  21 C     6.0000    0    12.011    8.867478    0.565976    0.931680
  22 C     6.0000    0    12.011    6.903410   -1.050121    1.511331
  23 H     1.0000    0     1.008   -9.629933    3.635977    2.498254
  24 H     1.0000    0     1.008   -8.009874    5.217263    0.026428
  25 H     1.0000    0     1.008  -11.136001    4.175783   -0.415650
  26 H     1.0000    0     1.008   -9.890390   -2.674662   -0.712815
  27 H     1.0000    0     1.008  -12.218034   -0.294572   -0.681815
  28 H     1.0000    0     1.008  -10.572309   -1.058658    2.119383
  29 H     1.0000    0     1.008   -6.646889    2.764705   -3.890429
  30 H     1.0000    0     1.008   -7.587639   -0.406535   -4.273574
  31 H     1.0000    0     1.008   -9.875889    2.011314   -4.269248
  32 H     1.0000    0     1.008   -5.707380   -3.076370   -1.535743
  33 H     1.0000    0     1.008   -1.718564   -4.463137    0.143041
  34 H     1.0000    0     1.008   -1.329857    2.186861    4.716412
  35 H     1.0000    0     1.008   -5.369632    3.601393    3.012601
  36 H     1.0000    0     1.008    4.098525   -4.733592    4.028159
  37 H     1.0000    0     1.008    1.170078   -5.880525    2.823717
  38 H     1.0000    0     1.008    5.343329   -2.951096   -4.371332
  39 H     1.0000    0     1.008    8.881589   -0.054563   -5.423551
  40 H     1.0000    0     1.008   14.205403    4.984539   -1.602602
  41 H     1.0000    0     1.008   11.600021    5.155700    0.526226
  42 H     1.0000    0     1.008   13.841088    2.637651    0.786070
  43 H     1.0000    0     1.008    9.824752    1.530530    2.448995
  44 H     1.0000    0     1.008    6.388979   -1.273271    3.469283

--------------------------------
INTERNAL COORDINATES (ANGSTROEM)
--------------------------------
 C      0   0   0     0.000000000000     0.00000000     0.00000000
 C      1   0   0     1.531601569629     0.00000000     0.00000000
 C      2   1   0     1.536354022311   108.25717084     0.00000000
 C      2   1   3     1.536480224365   108.26162986   119.01488771
 C      2   1   3     1.518939411726   112.69504317   239.50811263
 C      5   2   1     1.395728852986   119.60497800   180.37190727
 C      6   5   2     1.379151805599   122.04963038   179.94723553
 C      7   6   5     1.396808510963   120.20666569   359.72691814
 C      8   7   6     1.397622838222   117.99371361     0.40656219
 C      9   8   7     1.379182372236   121.29794142   359.72257766
 C      8   7   6     1.469866333869   124.17717907   181.01082700
 O     11   8   7     1.219740625421   121.85157876   181.52126312
 C     11   8   7     1.521306955516   118.00167820     2.25992703
 C     13  11   8     1.523512183584   111.23682902    70.34247169
 O     14  13  11     1.220352568140   119.98322486   249.86596200
 C     14  13  11     1.466208089193   118.03021735    69.10336224
 C     16  14  13     1.403581830291   117.64916963   184.16307480
 C     17  16  14     1.371183578060   121.18056545   178.90062182
 C     18  17  16     1.401539562852   120.24422200     0.03391063
 O     19  18  17     1.349144938064   115.86540379   180.31034552
 C     20  19  18     1.416393382277   119.32104808   179.04215241
 C     19  18  17     1.395313009223   119.03633894     0.32246934
 C     22  19  18     1.380465636459   120.39463524   359.77337870
 H      1   2   3     1.087362827544   111.12483177    59.38497574
 H      1   2   3     1.087374345968   111.11300934   181.31677395
 H      1   2   3     1.087775700053   109.29755006   300.35691578
 H      3   2   1     1.086200638305   111.46601086   175.95249168
 H      3   2   1     1.087502875967   109.88222547    55.90439925
 H      3   2   1     1.088053951149   110.23718501   296.31379592
 H      4   2   1     1.088091135161   110.27086050    64.18769534
 H      4   2   1     1.086193269032   111.49815771   184.50669667
 H      4   2   1     1.087501690186   109.90530685   304.57715949
 H      6   5   2     1.078939762027   119.89338829   359.92518180
 H      7   6   5     1.077871130688   118.73266619   180.63538954
 H      9   8   7     1.080422044102   118.21002120   179.99112131
 H     10   9   8     1.077081974819   118.28663466   180.14047226
 H     13  11   8     1.090217663100   108.30449447   190.99912082
 H     13  11   8     1.090120828184   109.78677221   310.69189209
 H     17  16  14     1.079743568772   118.17768919   359.28791935
 H     18  17  16     1.078338553781   121.37929535   180.27126846
 H     21  20  19     1.088198749818   105.27209769   181.09300907
 H     21  20  19     1.093032614471   111.18643789   299.73515543
 H     21  20  19     1.093035948827   111.18650013    62.47554580
 H     22  19  18     1.077883898480   120.81065783   179.82792901
 H     23  22  19     1.077757885852   118.14185020   180.60183892

---------------------------
INTERNAL COORDINATES (A.U.)
---------------------------
 C      0   0   0     0.000000000000     0.00000000     0.00000000
 C      1   0   0     2.894307512883     0.00000000     0.00000000
 C      2   1   0     2.903288346916   108.25717084     0.00000000
 C      2   1   3     2.903526834235   108.26162986   119.01488771
 C      2   1   3     2.870379502181   112.69504317   239.50811263
 C      5   2   1     2.637545289355   119.60497800   180.37190727
 C      6   5   2     2.606219209686   122.04963038   179.94723553
 C      7   6   5     2.639585547250   120.20666569   359.72691814
 C      8   7   6     2.641124402753   117.99371361     0.40656219
 C      9   8   7     2.606276972257   121.29794142   359.72257766
 C      8   7   6     2.777644824483   124.17717907   181.01082700
 O     11   8   7     2.304975736464   121.85157876   181.52126312
 C     11   8   7     2.874853511555   118.00167820     2.25992703
 C     13  11   8     2.879020788666   111.23682902    70.34247169
 O     14  13  11     2.306132140612   119.98322486   249.86596200
 C     14  13  11     2.770731743915   118.03021735    69.10336224
 C     16  14  13     2.652385265798   117.64916963   184.16307480
 C     17  16  14     2.591161441864   121.18056545   178.90062182
 C     18  17  16     2.648525939646   120.24422200     0.03391063
 O     19  18  17     2.549514447908   115.86540379   180.31034552
 C     20  19  18     2.676595590403   119.32104808   179.04215241
 C     19  18  17     2.636759458529   119.03633894     0.32246934
 C     22  19  18     2.608701990196   120.39463524   359.77337870
 H      1   2   3     2.054817952265   111.12483177    59.38497574
 H      1   2   3     2.054839718932   111.11300934   181.31677395
 H      1   2   3     2.055598168235   109.29755006   300.35691578
 H      3   2   1     2.052621732888   111.46601086   175.95249168
 H      3   2   1     2.055082605429   109.88222547    55.90439925
 H      3   2   1     2.056123986603   110.23718501   296.31379592
 H      4   2   1     2.056194254202   110.27086050    64.18769534
 H      4   2   1     2.052607806979   111.49815771   184.50669667
 H      4   2   1     2.055080364628   109.90530685   304.57715949
 H      6   5   2     2.038900665229   119.89338829   359.92518180
 H      7   6   5     2.036881244661   118.73266619   180.63538954
 H      9   8   7     2.041701772404   118.21002120   179.99112131
 H     10   9   8     2.035389956191   118.28663466   180.14047226
 H     13  11   8     2.060212809623   108.30449447   190.99912082
 H     13  11   8     2.060029818152   109.78677221   310.69189209
 H     17  16  14     2.040419639842   118.17768919   359.28791935
 H     18  17  16     2.037764546295   121.37929535   180.27126846
 H     21  20  19     2.056397616432   105.27209769   181.09300907
 H     21  20  19     2.065532296795   111.18643789   299.73515543
 H     21  20  19     2.065538597813   111.18650013    62.47554580
 H     22  19  18     2.036905372291   120.81065783   179.82792901
 H     23  22  19     2.036667242934   118.14185020   180.60183892

---------------------
BASIS SET INFORMATION
---------------------
There are 3 groups of distinct atoms

 Group   1 Type C   : 7s4p1d contracted to 3s2p1d pattern {511/31/1}
 Group   2 Type O   : 7s4p1d contracted to 3s2p1d pattern {511/31/1}
 Group   3 Type H   : 4s1p contracted to 2s1p pattern {31/1}

Atom   0C    basis set group =>   1
Atom   1C    basis set group =>   1
Atom   2C    basis set group =>   1
Atom   3C    basis set group =>   1
Atom   4C    basis set group =>   1
Atom   5C    basis set group =>   1
Atom   6C    basis set group =>   1
Atom   7C    basis set group =>   1
Atom   8C    basis set group =>   1
Atom   9C    basis set group =>   1
Atom  10C    basis set group =>   1
Atom  11O    basis set group =>   2
Atom  12C    basis set group =>   1
Atom  13C    basis set group =>   1
Atom  14O    basis set group =>   2
Atom  15C    basis set group =>   1
Atom  16C    basis set group =>   1
Atom  17C    basis set group =>   1
Atom  18C    basis set group =>   1
Atom  19O    basis set group =>   2
Atom  20C    basis set group =>   1
Atom  21C    basis set group =>   1
Atom  22C    basis set group =>   1
Atom  23H    basis set group =>   3
Atom  24H    basis set group =>   3
Atom  25H    basis set group =>   3
Atom  26H    basis set group =>   3
Atom  27H    basis set group =>   3
Atom  28H    basis set group =>   3
Atom  29H    basis set group =>   3
Atom  30H    basis set group =>   3
Atom  31H    basis set group =>   3
Atom  32H    basis set group =>   3
Atom  33H    basis set group =>   3
Atom  34H    basis set group =>   3
Atom  35H    basis set group =>   3
Atom  36H    basis set group =>   3
Atom  37H    basis set group =>   3
Atom  38H    basis set group =>   3
Atom  39H    basis set group =>   3
Atom  40H    basis set group =>   3
Atom  41H    basis set group =>   3
Atom  42H    basis set group =>   3
Atom  43H    basis set group =>   3
Atom  44H    basis set group =>   3
---------------------------------
AUXILIARY/J BASIS SET INFORMATION
---------------------------------
There are 3 groups of distinct atoms

 Group   1 Type C   : 12s5p4d2f1g contracted to 6s4p3d1f1g pattern {711111/2111/211/2/1}
 Group   2 Type O   : 12s5p4d2f1g contracted to 6s4p3d1f1g pattern {711111/2111/211/2/1}
 Group   3 Type H   : 5s2p1d contracted to 3s1p1d pattern {311/2/1}

Atom   0C    basis set group =>   1
Atom   1C    basis set group =>   1
Atom   2C    basis set group =>   1
Atom   3C    basis set group =>   1
Atom   4C    basis set group =>   1
Atom   5C    basis set group =>   1
Atom   6C    basis set group =>   1
Atom   7C    basis set group =>   1
Atom   8C    basis set group =>   1
Atom   9C    basis set group =>   1
Atom  10C    basis set group =>   1
Atom  11O    basis set group =>   2
Atom  12C    basis set group =>   1
Atom  13C    basis set group =>   1
Atom  14O    basis set group =>   2
Atom  15C    basis set group =>   1
Atom  16C    basis set group =>   1
Atom  17C    basis set group =>   1
Atom  18C    basis set group =>   1
Atom  19O    basis set group =>   2
Atom  20C    basis set group =>   1
Atom  21C    basis set group =>   1
Atom  22C    basis set group =>   1
Atom  23H    basis set group =>   3
Atom  24H    basis set group =>   3
Atom  25H    basis set group =>   3
Atom  26H    basis set group =>   3
Atom  27H    basis set group =>   3
Atom  28H    basis set group =>   3
Atom  29H    basis set group =>   3
Atom  30H    basis set group =>   3
Atom  31H    basis set group =>   3
Atom  32H    basis set group =>   3
Atom  33H    basis set group =>   3
Atom  34H    basis set group =>   3
Atom  35H    basis set group =>   3
Atom  36H    basis set group =>   3
Atom  37H    basis set group =>   3
Atom  38H    basis set group =>   3
Atom  39H    basis set group =>   3
Atom  40H    basis set group =>   3
Atom  41H    basis set group =>   3
Atom  42H    basis set group =>   3
Atom  43H    basis set group =>   3
Atom  44H    basis set group =>   3


           ************************************************************
           *        Program running with 4 parallel MPI-processes     *
           *              working on a common directory               *
           ************************************************************
------------------------------------------------------------------------------
                             ORCA STARTUP CALCULATIONS
                           -- RI-GTO INTEGRALS CHOSEN --
------------------------------------------------------------------------------
------------------------------------------------------------------------------
                   ___                                                        
                  /   \      - P O W E R E D   B Y -                         
                 /     \                                                     
                 |  |  |   _    _      __       _____    __    __             
                 |  |  |  | |  | |    /  \     |  _  \  |  |  /  |          
                  \  \/   | |  | |   /    \    | | | |  |  | /  /          
                 / \  \   | |__| |  /  /\  \   | |_| |  |  |/  /          
                |  |  |   |  __  | /  /__\  \  |    /   |      \           
                |  |  |   | |  | | |   __   |  |    \   |  |\   \          
                \     /   | |  | | |  |  |  |  | |\  \  |  | \   \       
                 \___/    |_|  |_| |__|  |__|  |_| \__\ |__|  \__/        
                                                                              
                      - O R C A' S   B I G   F R I E N D -                    
                                      &                                       
                       - I N T E G R A L  F E E D E R -                       
                                                                              
 v1 FN, 2020, v2 2021, v3 2022-2024                                           
------------------------------------------------------------------------------


----------------------
SHARK INTEGRAL PACKAGE
----------------------

Number of atoms                             ...     45
Number of basis functions                   ...    432
Number of shells                            ...    204
Maximum angular momentum                    ...      2
Integral batch strategy                     ... SHARK/LIBINT Hybrid
RI-J (if used) integral strategy            ... SPLIT-RIJ (Revised 2003 algorithm where possible)
Printlevel                                  ...      1
Contraction scheme used                     ... SEGMENTED contraction
Prescreening option                         ... SCHWARTZ
   Thresh                                   ... 2.500e-11
   Tcut                                     ... 2.500e-12
   Tpresel                                  ... 2.500e-12 
Coulomb Range Separation                    ... NOT USED
Exchange Range Separation                   ... NOT USED
Multipole approximations                    ... NOT USED
Finite Nucleus Model                        ... NOT USED
CABS basis                                  ... NOT available
Auxiliary Coulomb fitting basis             ... AVAILABLE
   # of basis functions in Aux-J            ...   1369
   # of shells in Aux-J                     ...    455
   Maximum angular momentum in Aux-J        ...      4
Auxiliary J/K fitting basis                 ... NOT available
Auxiliary Correlation fitting basis         ... NOT available
Auxiliary 'external' fitting basis          ... NOT available

Checking pre-screening integrals            ... done (  0.0 sec) Dimension = 204
   => SHARK Basis and OBASIS are compatible. Storing Pre-screening
Shell pair information
Shell pair cut-off parameter TPreSel        ...   2.5e-12
Total number of shell pairs                 ...     20910
Shell pairs after pre-screening             ...     13586
Total number of primitive shell pairs       ...     75056
Primitive shell pairs kept                  ...     31343
          la=0 lb=0:   4313 shell pairs
          la=1 lb=0:   5094 shell pairs
          la=1 lb=1:   1545 shell pairs
          la=2 lb=0:   1566 shell pairs
          la=2 lb=1:    923 shell pairs
          la=2 lb=2:    145 shell pairs

Checking whether 4 symmetric matrices of dimension 432 fit in memory
:Max Core in MB      =   2500.00
 MB in use           =     16.59
 MB left             =   2483.41
 MB needed           =      2.85
 Data fit in memory  = YES
Calculating RI/J V-Matrix + Cholesky decomp.... done (  0.2 sec)
Calculating Nuclear repulsion               ... done (  0.0 sec) ENN=   1816.148999677117 Eh

Diagonalization of the overlap matrix:
Smallest eigenvalue                        ... 2.415e-04
Time for diagonalization                   ...    0.029 sec
Threshold for overlap eigenvalues          ... 1.000e-07
Number of eigenvalues below threshold      ... 0
Time for construction of square roots      ...    0.020 sec
Total time needed                          ...    0.053 sec

-------------------
DFT GRID GENERATION
-------------------

General Integration Accuracy     IntAcc      ... 4.388
Radial Grid Type                 RadialGrid  ... OptM3 with GC (2021)
Angular Grid (max. ang.)         AngularGrid ... 4 (Lebedev-302)
Angular grid pruning method      GridPruning ... 4 (adaptive)
Weight generation scheme         WeightScheme... mBecke (2022)
Basis function cutoff            BFCut       ... 1.0000e-11
Integration weight cutoff        WCut        ... 1.0000e-14
Partially contracted basis set               ... off
Rotationally invariant grid construction     ... off
Angular grids for H and He will be reduced by one unit

Total number of grid points                  ...   207358
Total number of batches                      ...     3262
Average number of points per batch           ...       63
Average number of grid points per atom       ...     4608

--------------------
COSX GRID GENERATION
--------------------

GRIDX 1
-------
General Integration Accuracy     IntAcc      ... 3.816
Radial Grid Type                 RadialGrid  ... OptM3 with GC (2021)
Angular Grid (max. ang.)         AngularGrid ... 1 (Lebedev-50)
Angular grid pruning method      GridPruning ... 4 (adaptive)
Weight generation scheme         WeightScheme... mBecke (2022)
Basis function cutoff            BFCut       ... 1.0000e-11
Integration weight cutoff        WCut        ... 1.0000e-14
Partially contracted basis set               ... on
Rotationally invariant grid construction     ... off
Angular grids for H and He will be reduced by one unit

Total number of grid points                  ...    26315
Total number of batches                      ...      231
Average number of points per batch           ...      113
Average number of grid points per atom       ...      585
UseSFitting                                  ... on

GRIDX 2
-------
General Integration Accuracy     IntAcc      ... 4.020
Radial Grid Type                 RadialGrid  ... OptM3 with GC (2021)
Angular Grid (max. ang.)         AngularGrid ... 2 (Lebedev-110)
Angular grid pruning method      GridPruning ... 4 (adaptive)
Weight generation scheme         WeightScheme... mBecke (2022)
Basis function cutoff            BFCut       ... 1.0000e-11
Integration weight cutoff        WCut        ... 1.0000e-14
Partially contracted basis set               ... on
Rotationally invariant grid construction     ... off
Angular grids for H and He will be reduced by one unit

Total number of grid points                  ...    56460
Total number of batches                      ...      468
Average number of points per batch           ...      120
Average number of grid points per atom       ...     1255
UseSFitting                                  ... on

GRIDX 3
-------
General Integration Accuracy     IntAcc      ... 4.338
Radial Grid Type                 RadialGrid  ... OptM3 with GC (2021)
Angular Grid (max. ang.)         AngularGrid ... 3 (Lebedev-194)
Angular grid pruning method      GridPruning ... 4 (adaptive)
Weight generation scheme         WeightScheme... mBecke (2022)
Basis function cutoff            BFCut       ... 1.0000e-11
Integration weight cutoff        WCut        ... 1.0000e-14
Partially contracted basis set               ... on
Rotationally invariant grid construction     ... off
Angular grids for H and He will be reduced by one unit

Total number of grid points                  ...   123347
Total number of batches                      ...      989
Average number of points per batch           ...      124
Average number of grid points per atom       ...     2741
UseSFitting                                  ... on
Grids setup in   6.8 sec
Initializing property integral containers    ... done (  0.1 sec)

SHARK setup successfully completed in   7.5 seconds

Maximum memory used throughout the entire STARTUP-calculation: 59.4 MB


           ************************************************************
           *        Program running with 4 parallel MPI-processes     *
           *              working on a common directory               *
           ************************************************************
-------------------------------------------------------------------------------
                                 ORCA GUESS
                   Start orbitals & Density for SCF / CASSCF
-------------------------------------------------------------------------------

------------
SCF SETTINGS
------------
Hamiltonian:
 Density Functional     Method          .... DFT(GTOs)
 Exchange Functional    Exchange        .... B88
   X-Alpha parameter    XAlpha          ....  0.666667
   Becke's b parameter  XBeta           ....  0.004200
 Correlation Functional Correlation     .... LYP
 LDA part of GGA corr.  LDAOpt          .... VWN-5
 Gradients option       PostSCFGGA      .... off
 Hybrid DFT is turned on
   Fraction HF Exchange ScalHFX         ....  0.200000
   Scaling of DF-GGA-X  ScalDFX         ....  0.720000
   Scaling of DF-GGA-C  ScalDFC         ....  0.810000
   Scaling of DF-LDA-C  ScalLDAC        ....  1.000000
   Perturbative correction              ....  0.000000
   NL short-range parameter             ....  4.800000
 RI-approximation to the Coulomb term is turned on
   Number of AuxJ basis functions       .... 1369
   RIJ-COSX (HFX calculated with COS-X)).... on


General Settings:
 Integral files         IntName         .... opt
 Hartree-Fock type      HFTyp           .... RHF
 Total Charge           Charge          ....    0
 Multiplicity           Mult            ....    1
 Number of Electrons    NEL             ....  166
 Basis Dimension        Dim             ....  432
 Nuclear Repulsion      ENuc            ....   1816.1489996771 Eh

Convergence Acceleration:
 AO-DIIS                CNVDIIS         .... on
   Start iteration      DIISMaxIt       ....    12
   Startup error        DIISStart       ....  0.200000
   # of expansion vecs  DIISMaxEq       ....     5
   Bias factor          DIISBfac        ....   1.050
   Max. coefficient     DIISMaxC        ....  10.000
 MO-DIIS                CNVKDIIS        .... off
 Trust-Rad. Augm. Hess. CNVTRAH         .... auto
   Auto Start mean grad. ratio tolernc. ....  1.125000
   Auto Start start iteration           ....    50
   Auto Start num. interpolation iter.  ....    10
   Max. Number of Micro iterations      ....    24
   Max. Number of Macro iterations      .... Maxiter - #DIIS iter
   Number of Davidson start vectors     ....     2
   Converg. threshold    (grad. norm)   ....   1.000e-05
   Grad. Scal. Fac. for Micro threshold ....   0.100
   Minimum threshold for Micro iter.    ....   1.000e-02
   NR start threshold (gradient norm)   ....   1.000e-04
   Initial trust radius                 ....   0.400
   Minimum AH scaling param. (alpha)    ....   1.000
   Maximum AH scaling param. (alpha)    .... 1000.000
   Quad. conv. algorithm                .... NR
   White noise on init. David. guess    .... on
   Maximum white noise                  ....   0.010
   Pseudo random numbers                .... off
   Inactive MOs                         .... canonical
   Orbital update algorithm             .... Taylor
   Preconditioner                       .... Diag
   Full preconditioner red. dimension   ....   250
 SOSCF                 CNVSOSCF           .... on
   Start iteration     SOSCFMaxIt         ....   150
   Startup grad/error  SOSCFStart         ....  0.003300
   Hessian update      SOSCFHessUp        .... L-BFGS
   Autom. constraints  SOSCFAutoConstrain .... off
 Level Shifting         CNVShift        .... on
   Level shift para.    LevelShift      ....    0.2500
   Turn off err/grad.   ShiftErr        ....    0.0010
 Zerner damping         CNVZerner       .... off
 Static damping         CNVDamp         .... on
   Fraction old density DampFac         ....    0.7000
   Max. Damping (<1)    DampMax         ....    0.9800
   Min. Damping (>=0)   DampMin         ....    0.0000
   Turn off err/grad.   DampErr         ....    0.1000

SCF Procedure:
 Maximum # iterations   MaxIter         ....   300
 SCF integral mode      SCFMode         .... Direct
   Integral package                     .... SHARK and LIBINT hybrid scheme
 Reset frequency        DirectResetFreq ....    20
 Integral Threshold     Thresh          ....  2.500e-11 Eh
 Primitive CutOff       TCut            ....  2.500e-12 Eh

Convergence Tolerance:
 Convergence Check Mode ConvCheckMode   .... Total+1el-Energy
 Convergence forced     ConvForced      .... 0
 Energy Change          TolE            ....  1.000e-08 Eh
 1-El. energy change                    ....  1.000e-05 Eh
 Orbital Gradient       TolG            ....  1.000e-05
 Orbital Rotation angle TolX            ....  1.000e-05
 DIIS Error             TolErr          ....  5.000e-07

------------------------------
INITIAL GUESS: MODEL POTENTIAL
------------------------------
Loading Hartree-Fock densities                     ... done
Calculating cut-offs                               ... done
Initializing the effective Hamiltonian             ... done
Setting up the integral package (SHARK)            ... done
Starting the Coulomb interaction                   ... done (   0.9 sec)
Making the grid                                    ... done (   1.0 sec)
Mapping shells                                     ... done
Starting the XC term evaluation                    ... done (   0.8 sec)
  promolecular density results
     # of electrons  =    165.992290691
     EX              =   -134.035724196
     EC              =     -5.603386195
     EX+EC           =   -139.639110391
Transforming the Hamiltonian                       ... done (   0.0 sec)
Diagonalizing the Hamiltonian                      ... done (   0.0 sec)
Back transforming the eigenvectors                 ... done (   0.0 sec)
Now organizing SCF variables                       ... done
                      ------------------
                      INITIAL GUESS DONE (   2.9 sec)
                      ------------------
             **** ENERGY FILE WAS UPDATED (opt.en.tmp) ****
Finished Guess after   3.2 sec
Maximum memory used throughout the entire GUESS-calculation: 23.1 MB


           ************************************************************
           *        Program running with 4 parallel MPI-processes     *
           *              working on a common directory               *
           ************************************************************

-------------------------------------------------------------------------------------------
                                      ORCA LEAN-SCF
                              memory conserving SCF solver
-------------------------------------------------------------------------------------------

--------------------
CPCM SOLVATION MODEL
--------------------
CPCM parameters:
  Epsilon                                         ...      25.4510
  Refrac                                          ...       1.3611
  Rsolv                                           ...       1.3000
  Surface type                                    ... GAUSSIAN VDW
  Discretization scheme                           ... Constant charge density
    Threshold for H atoms                         ...       5.0000 (charges/Ang^2)
    Threshold for non-H atoms                     ...       5.0000 (charges/Ang^2)
  Epsilon function type                           ...         CPCM
Solvent:                                          ... ETHANOL
Radii:
  Scheme                                          ... Element-dependent radii
  Radius for C  used is    3.8550 Bohr (=   2.0400 Ang.)
  Radius for O  used is    3.4469 Bohr (=   1.8240 Ang.)
  Radius for H  used is    2.4944 Bohr (=   1.3200 Ang.)
Calculating surface                               ...        done! (  0.0s)
Cavity surface points                             ...         3723
Cavity Volume                                     ...    2612.6376
Cavity Surface-area                               ...    1323.2949
Calculating surface distance matrix               ...        done! (  0.2s)
Performing Cholesky decomposition & store         ...        done! (  1.2s)
Overall time for CPCM initialization              ...                 1.4s

----------------------------------------D-I-I-S--------------------------------------------
Iteration    Energy (Eh)           Delta-E    RMSDP     MaxDP     DIISErr   Damp  Time(sec)
-------------------------------------------------------------------------------------------
               ***  Starting incremental Fock matrix formation  ***
    1    -999.1682603248209489     0.00e+00  4.95e-03  8.30e-02  2.41e-01  0.700  23.1
    2    -999.4244513578432816    -2.56e-01  3.39e-03  5.24e-02  9.42e-02  0.700  12.2
                               ***Turning on AO-DIIS***
    3    -999.5287977381622113    -1.04e-01  1.50e-03  2.15e-02  3.54e-02  0.700  12.8
    4    -999.5916292142960629    -6.28e-02  2.74e-03  3.37e-02  1.73e-02  0.000  12.7
    5    -999.7275091326973779    -1.36e-01  4.30e-04  8.52e-03  6.67e-03  0.000  13.0
                              *** Initializing SOSCF ***
---------------------------------------S-O-S-C-F--------------------------------------
Iteration    Energy (Eh)           Delta-E    RMSDP     MaxDP     MaxGrad    Time(sec)
--------------------------------------------------------------------------------------
    6    -999.7283811052711826    -8.72e-04  1.44e-04  3.66e-03  1.39e-03    10.8
               *** Restarting incremental Fock matrix formation ***
    7    -999.7284492985613724    -6.82e-05  9.82e-05  3.05e-03  2.21e-04    19.8
    8    -999.7284514381699410    -2.14e-06  3.20e-05  6.66e-04  3.16e-04    13.3
    9    -999.7284559399022328    -4.50e-06  2.45e-05  6.96e-04  1.23e-04    11.8
   10    -999.7284558343494609     1.06e-07  1.06e-05  2.39e-04  8.07e-05    11.7
   11    -999.7284564690176012    -6.35e-07  4.47e-06  9.82e-05  1.32e-05    10.1
   12    -999.7284564472292914     2.18e-08  2.78e-06  6.21e-05  2.04e-05    13.9
   13    -999.7284564757037515    -2.85e-08  8.60e-07  2.16e-05  2.22e-06    10.4
                  *** Gradient check signals convergence ***

               *****************************************************
               *                     SUCCESS                       *
               *           SCF CONVERGED AFTER  13 CYCLES          *
               *****************************************************

Recomputing exchange energy using gridx3       ... done (   27.198 sec)
Old exchange energy                            :    -27.236828439 Eh
New exchange energy                            :    -27.236838206 Eh
Exchange energy change after final integration :     -0.000009767 Eh
Total energy after final integration           :   -999.728466242 Eh
             **** ENERGY FILE WAS UPDATED (opt.en.tmp) ****

----------------
TOTAL SCF ENERGY
----------------

Total Energy       :       -999.72846624234955 Eh          -27203.99459 eV

Components:
Nuclear Repulsion  :       1816.14899967711744 Eh           49419.92674 eV
Electronic Energy  :      -2815.86033928309689 Eh          -76623.45529 eV
One Electron Energy:      -4965.66341179145911 Eh         -135122.57093 eV
Two Electron Energy:       2149.80307250836222 Eh           58499.11564 eV
CPCM Dielectric    :         -0.01711686950007 Eh              -0.46577 eV

Virial components:
Potential Energy   :      -1990.16502996629788 Eh          -54155.14366 eV
Kinetic Energy     :        990.43656372394821 Eh           26951.14907 eV
Virial Ratio       :          2.00938162307282

DFT components:
N(Alpha)           :       82.999948897553 electrons
N(Beta)            :       82.999948897553 electrons
N(Total)           :      165.999897795107 electrons
E(X)               :     -108.145105661786 Eh       
E(C)               :       -6.602139839164 Eh       
E(XC)              :     -114.747245500950 Eh       

CPCM Solvation Model Properties:
Surface-charge          :         -0.03032707957149
Corrected charge        :         -0.00000000000000
Outlying charge corr.   :          0.00004470083661 Eh               0.00122 eV
Free-energy (cav+disp)  :  This term is not implemented in the current solvation scheme

---------------
SCF CONVERGENCE
---------------

  Last Energy change         ...    2.8474e-08  Tolerance :   1.0000e-08
  Last MAX-Density change    ...    2.1644e-05  Tolerance :   1.0000e-07
  Last RMS-Density change    ...    8.6008e-07  Tolerance :   5.0000e-09
  Last DIIS Error            ...    1.3905e-03  Tolerance :   5.0000e-07
  Last Orbital Gradient      ...    2.2231e-06  Tolerance :   1.0000e-05
  Last Orbital Rotation      ...    6.9544e-06  Tolerance :   1.0000e-05


----------------
ORBITAL ENERGIES
----------------

  NO   OCC          E(Eh)            E(eV) 
   0   2.0000     -19.171908      -521.6941 
   1   2.0000     -19.128216      -520.5052 
   2   2.0000     -19.125211      -520.4235 
   3   2.0000     -10.279946      -279.7316 
   4   2.0000     -10.278007      -279.6788 
   5   2.0000     -10.258771      -279.1554 
   6   2.0000     -10.234345      -278.4907 
   7   2.0000     -10.198344      -277.5110 
   8   2.0000     -10.197330      -277.4834 
   9   2.0000     -10.194531      -277.4073 
  10   2.0000     -10.194435      -277.4047 
  11   2.0000     -10.192670      -277.3567 
  12   2.0000     -10.191843      -277.3342 
  13   2.0000     -10.190594      -277.3002 
  14   2.0000     -10.190401      -277.2949 
  15   2.0000     -10.189770      -277.2777 
  16   2.0000     -10.189090      -277.2592 
  17   2.0000     -10.187387      -277.2129 
  18   2.0000     -10.184510      -277.1346 
  19   2.0000     -10.184425      -277.1323 
  20   2.0000     -10.167668      -276.6763 
  21   2.0000     -10.167574      -276.6737 
  22   2.0000     -10.165717      -276.6232 
  23   2.0000      -1.066789       -29.0288 
  24   2.0000      -1.037445       -28.2303 
  25   2.0000      -1.032060       -28.0838 
  26   2.0000      -0.865696       -23.5568 
  27   2.0000      -0.860749       -23.4222 
  28   2.0000      -0.816125       -22.2079 
  29   2.0000      -0.784079       -21.3359 
  30   2.0000      -0.760517       -20.6947 
  31   2.0000      -0.751988       -20.4626 
  32   2.0000      -0.745615       -20.2892 
  33   2.0000      -0.734298       -19.9813 
  34   2.0000      -0.698697       -19.0125 
  35   2.0000      -0.676523       -18.4091 
  36   2.0000      -0.676110       -18.3979 
  37   2.0000      -0.637914       -17.3585 
  38   2.0000      -0.623348       -16.9622 
  39   2.0000      -0.610161       -16.6033 
  40   2.0000      -0.599950       -16.3255 
  41   2.0000      -0.565599       -15.3907 
  42   2.0000      -0.551664       -15.0115 
  43   2.0000      -0.548818       -14.9341 
  44   2.0000      -0.536482       -14.5984 
  45   2.0000      -0.509173       -13.8553 
  46   2.0000      -0.496745       -13.5171 
  47   2.0000      -0.480221       -13.0675 
  48   2.0000      -0.478265       -13.0143 
  49   2.0000      -0.473109       -12.8740 
  50   2.0000      -0.460555       -12.5323 
  51   2.0000      -0.452833       -12.3222 
  52   2.0000      -0.451544       -12.2871 
  53   2.0000      -0.442472       -12.0403 
  54   2.0000      -0.438408       -11.9297 
  55   2.0000      -0.437601       -11.9077 
  56   2.0000      -0.432648       -11.7730 
  57   2.0000      -0.428043       -11.6476 
  58   2.0000      -0.418675       -11.3927 
  59   2.0000      -0.416029       -11.3207 
  60   2.0000      -0.408658       -11.1201 
  61   2.0000      -0.403802       -10.9880 
  62   2.0000      -0.399333       -10.8664 
  63   2.0000      -0.394527       -10.7356 
  64   2.0000      -0.389279       -10.5928 
  65   2.0000      -0.379010       -10.3134 
  66   2.0000      -0.374367       -10.1870 
  67   2.0000      -0.370043       -10.0694 
  68   2.0000      -0.363347        -9.8872 
  69   2.0000      -0.361748        -9.8437 
  70   2.0000      -0.357216        -9.7203 
  71   2.0000      -0.351260        -9.5583 
  72   2.0000      -0.331310        -9.0154 
  73   2.0000      -0.329469        -8.9653 
  74   2.0000      -0.327677        -8.9165 
  75   2.0000      -0.325888        -8.8679 
  76   2.0000      -0.314794        -8.5660 
  77   2.0000      -0.269814        -7.3420 
  78   2.0000      -0.267782        -7.2867 
  79   2.0000      -0.263166        -7.1611 
  80   2.0000      -0.253965        -6.9107 
  81   2.0000      -0.252563        -6.8726 
  82   2.0000      -0.235625        -6.4117 
  83   0.0000      -0.073700        -2.0055 
  84   0.0000      -0.048695        -1.3251 
  85   0.0000      -0.013084        -0.3560 
  86   0.0000      -0.010164        -0.2766 
  87   0.0000       0.034722         0.9448 
  88   0.0000       0.046795         1.2734 
  89   0.0000       0.062232         1.6934 
  90   0.0000       0.077149         2.0993 
  91   0.0000       0.088088         2.3970 
  92   0.0000       0.096030         2.6131 
  93   0.0000       0.101435         2.7602 
*Only the first 10 virtual orbitals were printed.

                    ********************************
                    * MULLIKEN POPULATION ANALYSIS *
                    ********************************

-----------------------
MULLIKEN ATOMIC CHARGES
-----------------------
   0 C :    0.111971
   1 C :   -0.269740
   2 C :    0.090461
   3 C :    0.090177
   4 C :    0.116588
   5 C :   -0.047203
   6 C :    0.000599
   7 C :    0.027096
   8 C :   -0.006730
   9 C :   -0.029110
  10 C :    0.018840
  11 O :   -0.235350
  12 C :    0.186424
  13 C :    0.014044
  14 O :   -0.241515
  15 C :    0.021527
  16 C :   -0.005932
  17 C :   -0.021766
  18 C :    0.251665
  19 O :   -0.316917
  20 C :    0.180421
  21 C :   -0.087964
  22 C :    0.004429
  23 H :    0.008538
  24 H :    0.008111
  25 H :    0.004620
  26 H :    0.006804
  27 H :    0.006312
  28 H :    0.006357
  29 H :    0.006480
  30 H :    0.007024
  31 H :    0.006165
  32 H :   -0.007969
  33 H :   -0.015455
  34 H :   -0.020532
  35 H :   -0.016318
  36 H :    0.034304
  37 H :    0.032825
  38 H :   -0.013694
  39 H :   -0.013243
  40 H :    0.043976
  41 H :    0.039337
  42 H :    0.039411
  43 H :   -0.007432
  44 H :   -0.007635
Sum of atomic charges:   -0.0000000

--------------------------------
MULLIKEN REDUCED ORBITAL CHARGES
--------------------------------
  0 C s       :     2.923569  s :     2.923569
      pz      :     0.983670  p :     2.935616
      px      :     0.977864
      py      :     0.974082
      dz2     :     0.008826  d :     0.028844
      dxz     :     0.003813
      dyz     :     0.003305
      dx2y2   :     0.005247
      dxy     :     0.007651

  1 C s       :     3.199261  s :     3.199261
      pz      :     1.021313  p :     3.018226
      px      :     0.968385
      py      :     1.028528
      dz2     :     0.012128  d :     0.052254
      dxz     :     0.009424
      dyz     :     0.008991
      dx2y2   :     0.010427
      dxy     :     0.011284

  2 C s       :     2.958221  s :     2.958221
      pz      :     0.985433  p :     2.922238
      px      :     0.967897
      py      :     0.968908
      dz2     :     0.008359  d :     0.029080
      dxz     :     0.003739
      dyz     :     0.003882
      dx2y2   :     0.007450
      dxy     :     0.005649

  3 C s       :     2.958304  s :     2.958304
      pz      :     0.939360  p :     2.922455
      px      :     0.989370
      py      :     0.993726
      dz2     :     0.007120  d :     0.029063
      dxz     :     0.005572
      dyz     :     0.005746
      dx2y2   :     0.004228
      dxy     :     0.006398

  4 C s       :     3.070380  s :     3.070380
      pz      :     0.917895  p :     2.769953
      px      :     0.928802
      py      :     0.923256
      dz2     :     0.007688  d :     0.043078
      dxz     :     0.007569
      dyz     :     0.007285
      dx2y2   :     0.009993
      dxy     :     0.010543

  5 C s       :     3.256630  s :     3.256630
      pz      :     0.912895  p :     2.755518
      px      :     0.922603
      py      :     0.920021
      dz2     :     0.004359  d :     0.035054
      dxz     :     0.006281
      dyz     :     0.006439
      dx2y2   :     0.008528
      dxy     :     0.009448

  6 C s       :     3.234077  s :     3.234077
      pz      :     0.950433  p :     2.729349
      px      :     0.920670
      py      :     0.858245
      dz2     :     0.006451  d :     0.035975
      dxz     :     0.007138
      dyz     :     0.005574
      dx2y2   :     0.008027
      dxy     :     0.008785

  7 C s       :     3.087312  s :     3.087312
      pz      :     0.976204  p :     2.846026
      px      :     0.930528
      py      :     0.939294
      dz2     :     0.006507  d :     0.039566
      dxz     :     0.006884
      dyz     :     0.007341
      dx2y2   :     0.009802
      dxy     :     0.009033

  8 C s       :     3.277374  s :     3.277374
      pz      :     0.872496  p :     2.693455
      px      :     0.894777
      py      :     0.926182
      dz2     :     0.004281  d :     0.035901
      dxz     :     0.006883
      dyz     :     0.006417
      dx2y2   :     0.009011
      dxy     :     0.009310

  9 C s       :     3.258859  s :     3.258859
      pz      :     0.971754  p :     2.735031
      px      :     0.904349
      py      :     0.858929
      dz2     :     0.005781  d :     0.035220
      dxz     :     0.007073
      dyz     :     0.005592
      dx2y2   :     0.008309
      dxy     :     0.008466

 10 C s       :     3.136256  s :     3.136256
      pz      :     0.870530  p :     2.749866
      px      :     0.941602
      py      :     0.937734
      dz2     :     0.017951  d :     0.095038
      dxz     :     0.019191
      dyz     :     0.017507
[...]
      py      :     0.963566
      dz2     :     0.022285  d :     0.091157
      dxz     :     0.025513
      dyz     :     0.012185
      dx2y2   :     0.015937
      dxy     :     0.015237

 23 H s       :     0.911573  s :     0.911573
      pz      :     0.040265  p :     0.065002
      px      :     0.012495
      py      :     0.012242

 24 H s       :     0.911534  s :     0.911534
      pz      :     0.013378  p :     0.065019
      px      :     0.020039
      py      :     0.031602

 25 H s       :     0.909302  s :     0.909302
      pz      :     0.015498  p :     0.064557
      px      :     0.036192
      py      :     0.012868

 26 H s       :     0.912422  s :     0.912422
      pz      :     0.017067  p :     0.065172
      px      :     0.014970
      py      :     0.033135

 27 H s       :     0.910877  s :     0.910877
      pz      :     0.014708  p :     0.064454
      px      :     0.037066
      py      :     0.012680

 28 H s       :     0.911866  s :     0.911866
      pz      :     0.039641  p :     0.064403
      px      :     0.012077
      py      :     0.012685

 29 H s       :     0.911830  s :     0.911830
      pz      :     0.014225  p :     0.064403
      px      :     0.021220
      py      :     0.028958

 30 H s       :     0.912396  s :     0.912396
      pz      :     0.018925  p :     0.065195
      px      :     0.015556
      py      :     0.030715

 31 H s       :     0.910880  s :     0.910880
      pz      :     0.015623  p :     0.064458
      px      :     0.035935
      py      :     0.012899

 32 H s       :     0.896876  s :     0.896876
      pz      :     0.027177  p :     0.068876
      px      :     0.017403
      py      :     0.024296

 33 H s       :     0.898616  s :     0.898616
      pz      :     0.017918  p :     0.071961
      px      :     0.020119
      py      :     0.033924

 34 H s       :     0.898109  s :     0.898109
      pz      :     0.026913  p :     0.070258
      px      :     0.019972
      py      :     0.023374

 35 H s       :     0.895151  s :     0.895151
      pz      :     0.017236  p :     0.069844
      px      :     0.018766
      py      :     0.033842

 36 H s       :     0.879246  s :     0.879246
      pz      :     0.027698  p :     0.069255
      px      :     0.028401
      py      :     0.013156

 37 H s       :     0.879411  s :     0.879411
      pz      :     0.012321  p :     0.069217
      px      :     0.024716
      py      :     0.032179

 38 H s       :     0.895810  s :     0.895810
      pz      :     0.029665  p :     0.070055
      px      :     0.020396
      py      :     0.019995

 39 H s       :     0.891751  s :     0.891751
      pz      :     0.038661  p :     0.069067
      px      :     0.016901
      py      :     0.013504

 40 H s       :     0.902452  s :     0.902452
      pz      :     0.015520  p :     0.063230
      px      :     0.032004
      py      :     0.015706

 41 H s       :     0.909737  s :     0.909737
      pz      :     0.015697  p :     0.065001
      px      :     0.018914
      py      :     0.030390

 42 H s       :     0.909821  s :     0.909821
      pz      :     0.028638  p :     0.064988
      px      :     0.014243
      py      :     0.022108

 43 H s       :     0.887652  s :     0.887652
      pz      :     0.031007  p :     0.071317
      px      :     0.018661
      py      :     0.021649

 44 H s       :     0.896310  s :     0.896310
      pz      :     0.041193  p :     0.071643
      px      :     0.017814
      py      :     0.012636



                      *****************************
                      * MAYER POPULATION ANALYSIS *
                      *****************************

  NA   - Mulliken gross atomic population
  ZA   - Total nuclear charge
  QA   - Mulliken gross atomic charge
  VA   - Mayer's total valence
  BVA  - Mayer's bonded valence
  FA   - Mayer's free valence

  ATOM       NA         ZA         QA         VA         BVA        FA
  0 C      5.9151     6.0000     0.0849     3.9734     3.9734    -0.0000
  1 C      6.2495     6.0000    -0.2495     4.1897     4.1897    -0.0000
  2 C      5.9350     6.0000     0.0650     3.9214     3.9214     0.0000
  3 C      5.9341     6.0000     0.0659     3.9223     3.9223    -0.0000
  4 C      5.9001     6.0000     0.0999     3.7231     3.7231    -0.0000
  5 C      6.0492     6.0000    -0.0492     3.8403     3.8403    -0.0000
  6 C      6.0098     6.0000    -0.0098     3.8240     3.8240     0.0000
  7 C      5.9768     6.0000     0.0232     3.6381     3.6381     0.0000
  8 C      6.0133     6.0000    -0.0133     3.8012     3.8012    -0.0000
  9 C      6.0346     6.0000    -0.0346     3.8408     3.8408     0.0000
 10 C      5.9507     6.0000     0.0493     4.1876     4.1876     0.0000
 11 O      8.2367     8.0000    -0.2367     2.2672     2.2672     0.0000
 12 C      5.8708     6.0000     0.1292     3.7805     3.7805     0.0000
 13 C      5.9560     6.0000     0.0440     4.2000     4.2000     0.0000
 14 O      8.2444     8.0000    -0.2444     2.2638     2.2638     0.0000
 15 C      5.9796     6.0000     0.0204     3.6261     3.6261     0.0000
 16 C      6.0151     6.0000    -0.0151     3.8299     3.8299    -0.0000
 17 C      6.0276     6.0000    -0.0276     3.7878     3.7878    -0.0000
 18 C      5.7614     6.0000     0.2386     3.8616     3.8616     0.0000
 19 O      8.3162     8.0000    -0.3162     2.2263     2.2263    -0.0000
 20 C      5.8332     6.0000     0.1668     3.9018     3.9018    -0.0000
 21 C      6.0902     6.0000    -0.0902     3.8094     3.8094    -0.0000
 22 C      6.0087     6.0000    -0.0087     3.8233     3.8233    -0.0000
 23 H      0.9857     1.0000     0.0143     0.9897     0.9897    -0.0000
 24 H      0.9855     1.0000     0.0145     0.9895     0.9895    -0.0000
 25 H      0.9900     1.0000     0.0100     0.9918     0.9918     0.0000
 26 H      0.9866     1.0000     0.0134     0.9977     0.9977    -0.0000
 27 H      0.9876     1.0000     0.0124     0.9941     0.9941    -0.0000
 28 H      0.9879     1.0000     0.0121     0.9919     0.9919     0.0000
 29 H      0.9881     1.0000     0.0119     0.9919     0.9919    -0.0000
 30 H      0.9867     1.0000     0.0133     0.9977     0.9977    -0.0000
 31 H      0.9878     1.0000     0.0122     0.9941     0.9941    -0.0000
 32 H      0.9970     1.0000     0.0030     0.9860     0.9860    -0.0000
 33 H      1.0079     1.0000    -0.0079     1.0278     1.0278     0.0000
 34 H      1.0101     1.0000    -0.0101     1.0101     1.0101    -0.0000
 35 H      1.0050     1.0000    -0.0050     0.9984     0.9984     0.0000
 36 H      0.9597     1.0000     0.0403     1.0000     1.0000    -0.0000
 37 H      0.9604     1.0000     0.0396     1.0006     1.0006    -0.0000
 38 H      1.0035     1.0000    -0.0035     1.0112     1.0112    -0.0000
 39 H      1.0019     1.0000    -0.0019     0.9967     0.9967    -0.0000
 40 H      0.9505     1.0000     0.0495     0.9888     0.9888    -0.0000
 41 H      0.9562     1.0000     0.0438     0.9866     0.9866    -0.0000
 42 H      0.9564     1.0000     0.0436     0.9867     0.9867    -0.0000
 43 H      0.9964     1.0000     0.0036     0.9985     0.9985    -0.0000
 44 H      1.0009     1.0000    -0.0009     1.0270     1.0270    -0.0000

  Mayer bond orders larger than 0.100000
B(  0-C ,  1-C ) :   1.0909 B(  0-C , 23-H ) :   0.9483 B(  0-C , 24-H ) :   0.9481 
B(  0-C , 25-H ) :   0.9573 B(  1-C ,  2-C ) :   1.0368 B(  1-C ,  3-C ) :   1.0376 
B(  1-C ,  4-C ) :   0.9343 B(  2-C , 26-H ) :   0.9621 B(  2-C , 27-H ) :   0.9631 
B(  2-C , 28-H ) :   0.9635 B(  3-C , 29-H ) :   0.9634 B(  3-C , 30-H ) :   0.9620 
B(  3-C , 31-H ) :   0.9630 B(  4-C ,  5-C ) :   1.3465 B(  4-C ,  9-C ) :   1.3909 
B(  5-C ,  6-C ) :   1.4030 B(  5-C , 32-H ) :   0.9908 B(  6-C ,  7-C ) :   1.3262 
B(  6-C , 33-H ) :   0.9703 B(  7-C ,  8-C ) :   1.3438 B(  7-C , 10-C ) :   0.9651 
B(  8-C ,  9-C ) :   1.3462 B(  8-C , 34-H ) :   0.9899 B(  9-C , 35-H ) :   0.9852 
B( 10-C , 11-O ) :   2.0802 B( 10-C , 12-C ) :   1.0171 B( 12-C , 13-C ) :   1.0141 
B( 12-C , 36-H ) :   0.8899 B( 12-C , 37-H ) :   0.8898 B( 13-C , 14-O ) :   2.0669 
B( 13-C , 15-C ) :   0.9866 B( 15-C , 16-C ) :   1.2990 B( 15-C , 22-C ) :   1.3387 
B( 16-C , 17-C ) :   1.4126 B( 16-C , 38-H ) :   0.9924 B( 17-C , 18-C ) :   1.2979 
B( 17-C , 39-H ) :   0.9956 B( 18-C , 19-O ) :   1.1673 B( 18-C , 21-C ) :   1.2862 
B( 19-O , 20-C ) :   0.9332 B( 20-C , 40-H ) :   0.9765 B( 20-C , 41-H ) :   0.9685 
B( 20-C , 42-H ) :   0.9686 B( 21-C , 22-C ) :   1.3749 B( 21-C , 43-H ) :   0.9929 
B( 22-C , 44-H ) :   0.9693 

-------
TIMINGS
-------

Total SCF time: 0 days 0 hours 1 min 43 sec 

Total time                  ....     103.442 sec
Sum of individual times     ....      96.466 sec  ( 93.3%)

SCF preparation             ....       1.871 sec  (  1.8%)
Fock matrix formation       ....      93.176 sec  ( 90.1%)
  Startup                   ....       0.048 sec  (  0.1% of F)
  Split-RI-J                ....       7.099 sec  (  7.6% of F)
  Chain of spheres X        ....      74.615 sec  ( 80.1% of F)
  XC integration            ....       8.464 sec  (  9.1% of F)
    Basis function eval.    ....       2.932 sec  ( 34.6% of XC)
    Density eval.           ....       1.860 sec  ( 22.0% of XC)
    XC-Functional eval.     ....       0.278 sec  (  3.3% of XC)
    XC-Potential eval.      ....       2.577 sec  ( 30.4% of XC)
  CPCM terms                ....       9.108 sec  (  9.8% of F)
Diagonalization             ....       0.000 sec  (  0.0%)
Density matrix formation    ....       0.176 sec  (  0.2%)
Total Energy calculation    ....       0.108 sec  (  0.1%)
Population analysis         ....       0.284 sec  (  0.3%)
Orbital Transformation      ....       0.107 sec  (  0.1%)
Orbital Orthonormalization  ....       0.000 sec  (  0.0%)
DIIS solution               ....       0.144 sec  (  0.1%)
SOSCF solution              ....       0.600 sec  (  0.6%)
Finished LeanSCF after 104.2 sec

Maximum memory used throughout the entire LEANSCF-calculation: 72.8 MB

-------------------------   --------------------
FINAL SINGLE POINT ENERGY      -999.735811378283
-------------------------   --------------------

                                *** OPTIMIZATION RUN DONE ***



           ************************************************************
           *        Program running with 4 parallel MPI-processes     *
           *              working on a common directory               *
           ************************************************************

------------------------------------------------------------------------------
                              ORCA PROPERTY CALCULATIONS
------------------------------------------------------------------------------

GBWName                                 ... opt.gbw
Number of atoms                         ...     45
Number of basis functions               ...    432
Max core memory                         ...   2500 MB

Electric properties:
Dipole moment                           ... YES
Quadrupole moment                       ...  NO
Static polarizability (Dipole/Dipole)   ...  NO
Static polarizability (Dipole/Quad.)    ...  NO
Static polarizability (Quad./Quad.)     ...  NO
Static polarizability (Velocity)        ...  NO
Static hyperpolarizability              ...  NO

Atomic electric properties:
Dipole moment                           ...  NO
Quadrupole moment                       ...  NO
Static polarizability                   ...  NO

Choice of electric origin               ... Center of mass
Position of electric origin             ...     1.161919    -0.316041     0.223549

General magnetic properties:
Magnetizability                         ...  NO

EPR properties:
g-Tensor (aka g-matrix)                 ...  NO
Zero-Field splitting spin-orbit         ...  NO
Zero-field splitting spin-spin          ...  NO
Hyperfine couplings                     ...  NO (   0 nuclei)
Quadrupole couplings                    ...  NO (   0 nuclei)
Contact density                         ...  NO (   0 nuclei)

NMR properties:
Chemical shifts                         ...  NO (   0 nuclei)
Spin-rotation constants                 ...  NO (   0 nuclei)
Spin-spin couplings                     ...  NO (   0 nuclei,    0 pairs)

Choice of magnetic origin               ... GIAO
Position of magnetic origin             ...     0.000000     0.000000     0.000000

Properties with geometric perturbations:
SCF Hessian                             ...  NO
IR spectrum                             ...  NO
VCD spectrum                            ...  NO
X-ray spectroscopy properties:
SCF XES/XAS/RIXS spectra                ...  NO

SCF SOC stabilization energy            ...  NO
Diagonal Born-Oppenheimer correction    ...  NO

-------------
DIPOLE MOMENT
-------------

Method             : SCF
Type of density    : Electron Density
Multiplicity       :   1
Irrep              :   0
Energy             :  -999.7358113782825058 Eh
Basis              : AO
                                X                 Y                 Z
Electronic contribution:     25.926130537      -6.815745996       2.108827304
Nuclear contribution   :    -25.672005244       7.454069920      -1.737094616
                        -----------------------------------------
Total Dipole Moment    :      0.254125293       0.638323923       0.371732688
                        -----------------------------------------
Magnitude (a.u.)       :      0.781167259
Magnitude (Debye)      :      1.985569377



--------------------
Rotational spectrum 
--------------------
 
Rotational constants in cm-1:             0.020626             0.003013             0.002967 
Rotational constants in MHz :           618.348684            90.338154            88.963233 

Dipole components along the rotational axes: 
x,y,z [a.u.] :    -0.220860     0.696232     0.276955 
x,y,z [Debye]:    -0.561382     1.769681     0.703963 

 

Dipole moment calculation done in   0.1 sec 

Maximum memory used throughout the entire PROP-calculation: 23.3 MB

--------------------------------
SUGGESTED CITATIONS FOR THIS RUN
--------------------------------

Below you find a list of papers that are relevant to this ORCA run
We neither can nor want to force you to cite these papers, but we appreciate if you do
You receive ORCA, which is the product of decades of hard work by many enthusiastic individuals, for free
The only thing we kindly ask in return is that you cite our papers,
We deeply appreciate it, if you show your appreciation for ORCA by not just citing the generic ORCA reference.

Please note that relegating all ORCA citations to the supporting information does *not* help us.
SI sections are not indexed - citations you put there will not count into any citation statistics
But we need these citations in order to attract the funding resources that allow us to do what we are doing

Therefore, if you are a happy ORCA user, please consider citing a few of the papers listed below in the main body of your paper

In addition to the list printed below, the program has created the file opt.bibtex that contains the list in bibtex format
You can import this file easily into all common literature databanks and citation aid programs

It goes without saying that in many instances, there are alternative algorithms to achieve similar
results as the ones you have gotten from ORCA. It is, of course, also the case that in some instances
ORCA just re-implements algorithms worked out by others. We are fully aware of that and we are also
fully appreciative of our colleagues work. Hence this citation list should not be read as indicating
that the listed papers, which are focused on our own work, are the only ones worth citing. It simply
meant to make it easier for users to cite ORCA specific papers. It is not a substitute for doing your
own literature research and citing the relevant literature in a scientifically appropriate manner.

List of essential papers. We consider these as the minimum necessary citations

  1. Neese, F.
     Software update: the ORCA program system, version 6.0
     WIRES Comput. Molec. Sci. 2025 15(1), e70019
     doi.org/10.1002/wcms.70019

List of papers to cite with high priority. The work reported in these papers was absolutely
necessary for this run to complete.
Our perspective: the developers of density functionals and basis sets usually get cited in chemistry papers
Good! But without the algorithms to do something with them, the functionals or basis sets would not do anything.
Hence, in our opinion, the algorithm design and method developments papers are equally worthy of getting cited

  1. Neese, F.
     An improvement of the resolution of the identity approximation for the formation of the Coulomb matrix
     J. Comp. Chem. 2003 24(14), 1740-1747
     doi.org/10.1002/jcc.10318
  2. Neese, F.; Wennmohs, F.; Hansen, A.; Becker, U.
     Efficient, approximate and parallel Hartree-Fock and hybrid DFT calculations. A 'chain-of-spheres' algorithm for the Hartree-Fock exchange
     Chem. Phys. 2009 356(1-3), 98-109
     doi.org/10.1016/j.chemphys.2008.10.036
  3. Garcia-Rates, M.; Neese, F.
     Effect of the Solute Cavity on the Solvation Energy and its Derivatives within the Framework of the Gaussian Charge Scheme
     J. Comput. Chem. 2020 41 , 922-939
     doi.org/10.1002/jcc.26139
  4. Helmich-Paris, B.; de Souza, B.; Neese, F.; Izsák, R.
     An improved chain of spheres for exchange algorithm
     J. Chem. Phys. 2021 155(10), 104109
     doi.org/10.1063/5.0058766
  5. Neese, F.
     The SHARK Integral Generation and Digestion System
     J. Comp. Chem. 2022 44(3), 381
     doi.org/10.1002/jcc.26942

List of suggested additional citations. These are papers that are important in the 'surrounding' of 
of this run, or papers that preceded the highly important papers. If you like your results we are grateful for a citation.

  1. Izsak, R.; Neese, F.
     An overlap fitted chain of spheres exchange method
     J. Chem. Phys. 2011 135 , 144105
     doi.org/10.1063/1.3646921
  2. Izsak, R.; Hansen, A.; Neese, F.
     The resolution of identity and chain of spheres approximations for the LPNO-CCSD singles Fock term
     Molec. Phys. 2012 110 , 2413-2417
     doi.org/10.1080/00268976.2012.687466
  3. Neese, F.
     The ORCA program system
     WIRES Comput. Molec. Sci. 2012 2(1), 73-78
     doi.org/10.1002/wcms.81
  4. Izsak, R.; Neese, F.; Klopper, W.
     Robust fitting techniques in the chain of spheres approximation to the Fock exchange: The role of the complementary space
     J. Chem. Phys. 2013 139 , 
     doi.org/10.1063/1.4819264
  5. Neese, F.
     Software update: the ORCA program system, version 4.0
     WIRES Comput. Molec. Sci. 2018 8(1), 1-6
     doi.org/10.1002/wcms.1327
  6. Neese, F.; Wennmohs, F.; Becker, U.; Riplinger, C.
     The ORCA quantum chemistry program package
     J. Chem. Phys. 2020 152(22), 224108
     doi.org/10.1063/5.0004608
  7. Neese, F.
     Software update: The ORCA program system—Version 5.0
     WIRES Comput. Molec. Sci. 2022 12(1), e1606
     doi.org/10.1002/wcms.1606

List of optional additional citations

  1. Neese, F.
     Approximate second-order SCF convergence for spin unrestricted wavefunctions
     Chem. Phys. Lett. 2000 325(1-3), 93-98
     doi.org/10.1016/s0009-2614(00)00662-x

Timings for individual modules:

Sum of individual times          ...     2438.929 sec (=  40.649 min)
Startup calculation              ...       75.903 sec (=   1.265 min)   3.1 %
SCF iterations                   ...     1544.880 sec (=  25.748 min)  63.3 %
Property calculations            ...        0.638 sec (=   0.011 min)   0.0 %
SCF Gradient evaluation          ...      816.892 sec (=  13.615 min)  33.5 %
Geometry relaxation              ...        0.616 sec (=   0.010 min)   0.0 %
                             ****ORCA TERMINATED NORMALLY****
TOTAL RUN TIME: 0 days 0 hours 40 minutes 46 seconds 74 msec
