
                                 *****************
                                 * O   R   C   A *
                                 *****************

                                            #,                                       
                                            ###                                      
                                            ####                                     
                                            #####                                    
                                            ######                                   
                                           ########,                                 
                                     ,,################,,,,,                         
                               ,,#################################,,                 
                          ,,##########################################,,             
                       ,#########################################, ''#####,          
                    ,#############################################,,   '####,        
                  ,##################################################,,,,####,       
                ,###########''''           ''''###############################       
              ,#####''   ,,,,##########,,,,          '''####'''          '####       
            ,##' ,,,,###########################,,,                        '##       
           ' ,,###''''                  '''############,,,                           
         ,,##''                                '''############,,,,        ,,,,,,###''
      ,#''                                            '''#######################'''  
     '                                                          ''''####''''         
             ,#######,   #######,   ,#######,      ##                                
            ,#'     '#,  ##    ##  ,#'     '#,    #''#        ,####,    ,#,          
            ##       ##  ##   ,#'  ##            #'  '#       #'       ,# #          
            ##       ##  #######   ##           ,######,      #####,      #          
            '#,     ,#'  ##    ##  '#,     ,#' ,#      #,     #,   #      #          
             '#######'   ##     ##  '#######'  #'      '#     '####' #    #          



                #########################################################
                #                        -***-                          #
                #          Department of theory and spectroscopy        #
                #                                                       #
                #                      Frank Neese                      #
                #                                                       #
                #     Directorship, Architecture, Infrastructure        #
                #                    SHARK, DRIVERS                     #
                #        Core code/Algorithms in most modules           #
                #                                                       #
                #        Max Planck Institute fuer Kohlenforschung      #
                #                Kaiser Wilhelm Platz 1                 #
                #                 D-45470 Muelheim/Ruhr                 #
                #                      Germany                          #
                #                                                       #
                #                  All rights reserved                  #
                #                        -***-                          #
                #########################################################


                         Program Version 6.1.1  -  RELEASE   -


 With contributions from (in alphabetic order):
[Max-Planck-Institut fuer Kohlenforschung]                               
  Daniel Aravena         : Magnetic Suceptibility                        
  Michael Atanasov       : Ab Initio Ligand Field Theory (pilot matlab implementation)
  Alexander A. Auer      : GIAO ZORA, VPT2 properties, NMR spectrum      
  Ute Becker             : All parallelization in ORCA, NUMFREQ, NUMCALC 
  Giovanni Bistoni       : ED, misc. LED, open-shell LED, HFLD           
  Dmytro Bykov           : pre 5.0 version of the SCF Hessian            
  Marcos Casanova-Páez   : Triplet and SCS-CIS(D). UHF-(DLPNO)-IP/EA/STEOM-CCSD. UHF-CVS-IP/STEOM-CCSD   
  Vijay G. Chilkuri      : MRCI spin determinant printing, contributions to CSF-ICE 
  Pauline Colinet        : FMM embedding                                 
  Dipayan Datta          : RHF DLPNO-CCSD density                        
  Achintya Kumar Dutta   : EOM-CC, STEOM-CC                              
  Nicolas Foglia         : Exact transition moments, OPA infrastructure, MCD improvements    
  Dmitry Ganyushin       : Spin-Orbit,Spin-Spin,Magnetic field MRCI      
  Miquel Garcia-Rates    : C-PCM and meta-GGA Hessian, CCSD/C-PCM, Gaussian charge scheme 
  Tiago L. C. Gouveia    : GS-ROHF, GS-ROCIS                             
  Yang Guo               : DLPNO-NEVPT2, F12-NEVPT2, CIM, IAO-localization        
  Andreas Hansen         : Spin unrestricted coupled pair/coupled cluster methods 
  Ingolf Harden          : AUTO-CI MPn and infrastructure                
  Benjamin Helmich-Paris : MC-RPA, TRAH-(SCF,CASSCF), AVAS, COSX integrals, SCF dyn. polar., MC-PDFT, srDFT 
  Lee Huntington         : MR-EOM, pCC                                   
  Robert Izsak           : Overlap fitted RIJCOSX, COSX-SCS-MP3, EOM     
  Riya Kayal             : Wick's Theorem for AUTO-CI, AUTO-CI UHF-CCSDT 
  Emily Kempfer          : AUTO-CI RHF CISDT and CCSDT, approximate NEVPT4
  Christian Kollmar      : KDIIS, OOCD, Brueckner-CCSD(T), CCSD density, CASPT2, CASPT2-K, improved NEVPT2 
  Axel Koslowski         : Symmetry handling                             
  Simone Kossmann        : meta-GGA functionals, TD-DFT gradient, OOMP2, (MP2 Hessian; deprecated post 5.0) 
  Lucas Lang             : DCDCAS, Hyperfine gauge corrections, ICE-SOC+SSC
  Marvin Lechner         : AUTO-CI (C++ implementation), FIC-MRCC        
  Spencer Leger          : CASSCF response                               
  Dagmar Lenk            : GEPOL surface, SMD, ORCA-2-JSON               
  Dimitrios Liakos       : Extrapolation schemes; Compound Job, Property file
  Dimitrios Manganas     : Further ROCIS development; embedding schemes. LFT, Crystal Embedding 
  Dimitrios Pantazis     : SARC Basis sets                               
  Anastasios Papadopoulos: AUTO-CI, single reference methods and gradients 
  Taras Petrenko         : pre 6.0 DFT Hessian and TD-DFT gradient,  ECA, NRVS 
  Petra Pikulova         : Analytic Raman intensities                    
  Peter Pinski           : DLPNO-MP2, DLPNO-MP2 Gradient                 
  Shashank Vittal Rao    : ES-AILFT, MagRelax                            
  Christoph Reimann      : Effective Core Potentials                     
  Marius Retegan         : Local ZFS, SOC                                
  Christoph Riplinger    : Optimizer, TS searches, QM/MM, DLPNO-CCSD(T), (RO)-DLPNO pert. Triples 
  Michael Roemelt        : Original ROCIS implementation, recursive CI coupling coefficients
  Masaaki Saitow         : Open-shell DLPNO-CCSD energy and density      
  Barbara Sandhoefer     : DKH picture change effects                    
  Yorick L. A. Schmerwitz: GMF and freeze-and-release deltaSCF, NEB S-IDPP initial path                    
  Kantharuban Sivalingam : CASSCF convergence/infrastructure, NEVPT2, NEVPT3, NEVPT4(SD), FIC-MRCI and CEPA variants
  Bernardo de Souza      : ESD, SOC TD-DFT                               
  Georgi L. Stoychev     : AutoAux, RI-MP2 NMR, DLPNO-MP2 response, X2C  
  Van Anh Tran           : RI-MP2 g-tensors                              
  Willem Van den Heuvel  : Paramagnetic NMR                              
  Zikuan Wang            : NOTCH, Electric field optimization            
  Frank Wennmohs         : Technical directorship and infrastructure     
  Hang Xu                : AUTO-CI-Response properties                   
                                                                         
[FACCTs GmbH]                                                            
  Markus Bursch, Nicolas Foglia, Miquel Garcia-Rates, Ingolf Harden, Hagen Neugebauer, Anastasios Papadopoulos, 
  Christoph Riplinger, Bernardo de Souza, Georgi L. Stoychev                                                    
                                                                 
  APM, various basis sets, CI-OPT, improved COSX, DLPNO-Multilevel,           
  DOCKER, DRACO, updates on ESD, Fragmentator, GOAT, IRC, LR-CPCM, L-BFGS, MBIS, meta-GGA TD-DFT gradient, ML-optimized integration grids, 
  MM, NACMEs, nearIR, NEB, NEB-TS, NL-DFT gradient (VV10), 2- and 3-layer-ONIOM, interface openCOSMO-RS, QMMM,   
  Crystal-QMMM, RESP, rigid body optimization, SF, symmetry and pop. for TD-DFT, various functionals, SOLVATOR                                   
                                                                         
[Other institutions]                                                     
  V. Asgeirsson          : NEB                                           
  Christoph Bannwarth    : sTDA-DFT, sTD-DFT, PBEh-3c, B97-3c, D3        
  Giovanni Bistoni       : ETS/NOCV, ADLD/ADEX, COVALED                  
  Martin Brehm           : Molecular dynamics                            
  Ronald Cardenas        : ETS/NOCV                                      
  Martina Colucci        : COVALED                                       
  Sebastian Ehlert       : rSCAN, r2SCAN, r2SCAN-3c, D4, dhf basis sets  
  Marvin Friede          : D4 for Fr, Ra, Ac-Lr                          
  Lars Goerigk           : TD-DFT with DH, B97 family of functionals     
  Stefan Grimme          : VdW corrections, initial TS optimization, DFT functionals, gCP, sTDA/sTD-DF 
  Waldemar Hujo          : DFT-NL                                        
  H. Jonsson             : NEB                                           
  Holger Kruse           : gCP                                           
  Marcel Mueller         : wB97X-3c, vDZP basis set                      
  Hagen Neugebauer       : wr2SCAN, Native XTB                           
  Gianluca Regni         : ADLD/ADEX                                     
  Tobias Risthaus        : pre 6.0 range-separated hybrid DFT and stability analysis
  Lukas Wittmann         : regularized MP2, r2SCAN double-hybrids, wr2SCAN        
                                                                         
We gratefully acknowledge several colleagues who have allowed us to      
interface, adapt or use parts of their codes:                            
  Ed Valeev, F. Pavosevic, A. Kumar             : LibInt (2-el integral package), F12 methods 
  Garnet Chan, S. Sharma, J. Yang, R. Olivares  : DMRG                   
  Ulf Ekstrom                                   : XCFun DFT Library      
  Mihaly Kallay                                 : mrcc  (arbitrary order and MRCC methods)
  Frank Weinhold                                : gennbo (NPA and NBO analysis)           
  Simon Mueller                                 : openCOSMO-RS                            
  Christopher J. Cramer and Donald G. Truhlar   : smd solvation model                     
  S Lehtola, MJT Oliveira, MAL Marques          : LibXC Library                           
  Liviu Ungur et al                             : ANISO software                          


 Your calculation uses the libint2 library for the computation of 2-el integrals
 For citations please refer to: http://libint.valeyev.net

 Your ORCA version has been built with support for libXC version: 7.0.0
 For citations please refer to: https://libxc.gitlab.io

 This ORCA versions uses:
   CBLAS   interface :  Fast vector & matrix operations
   LAPACKE interface :  Fast linear algebra routines
   Shared memory     :  Shared parallel matrices


  ***********************************
  * Starting time: Tue Jul 21 12:52:57 2026
  * Host name:     DESKTOP-19Q153E
  * Process ID:    20828
  * Working dir.:  C:\Users\ysm04\Documents\etc\uv_vis\calculations\02_tddft_orca\enolA\enolA_c000\b3lyp_def2svpd\ethanol
  ***********************************

NOTE: MaxCore=2500 MB was set to SCF,MP2,MDCI,CIPSI,MRCI,RASCI and CIS
      => If you want to overwrite this, your respective input block should be placed after the MaxCore statement
================================================================================

----- Orbital basis set information -----
Your calculation utilizes the basis: def2-SVPD
   F. Weigend and R. Ahlrichs, Phys. Chem. Chem. Phys. 7, 3297 (2005).
   D. Rappoport and F. Furche, J. Chem. Phys. 133, 134105 (2010)
   D. Rappoport, J. Chem. Phys. 155, 124102 (2021).

----- AuxJ basis set information -----
Your calculation utilizes the auxiliary basis: def2/J
   H-Rn: F. Weigend, Phys. Chem. Chem. Phys. 8, 1057 (2006).
   Fr-Lr: K. Eichkorn, F. Weigend, O. Treutler, R. Ahlrichs; Theor. Chem. Acc. 97, 119 (1997).

================================================================================
                                        WARNINGS
                       Please study these warnings very carefully!
================================================================================


WARNING: CIS/ROCIS methods need fully converged wavefunctions
  ===> : Setting SCFConvForced true
         You can overwrite this default with %scf ConvForced false 


================================================================================
                                       INPUT FILE
================================================================================
NAME = td.inp
|  1> # enolA / enolA_c000 / b3lyp_def2svpd / solvent=ethanol
|  2> ! B3LYP def2-SVPD RIJCOSX def2/J TightSCF CPCM(Ethanol)
|  3> %pal nprocs 4 end
|  4> %maxcore 2500
|  5> %scf
|  6>   MaxIter 300
|  7> end
|  8> %tddft
|  9>   nroots 18
| 10>   tda    true
| 11>   maxdim 5
| 12> end
| 13> * xyz 0 1
| 14> C     -6.2773182700    -0.3604747600    -0.3671110800
| 15> C     -5.1842447500    -0.3919115600     0.7054595900
| 16> C     -5.5840380300     0.5758264100     1.8299401600
| 17> C     -5.0960922500    -1.8233797600     1.2566386800
| 18> C     -3.8234133600     0.0184140400     0.1675635700
| 19> C     -3.6176499400     0.4269760300    -1.1461210300
| 20> C     -2.3630075500     0.7921506700    -1.5951419200
| 21> C     -1.2567656900     0.7503611100    -0.7480101200
| 22> C     -1.4575056100     0.3551166000     0.5750677900
| 23> C     -2.7151104800     0.0019312800     1.0154255500
| 24> C      0.0619824800     1.1232403600    -1.2671039200
| 25> O      0.0472279300     1.8971776400    -2.3459344500
| 26> C      1.2340650700     0.6858812400    -0.7080492800
| 27> C      2.5075943400     1.0287049800    -1.2714691800
| 28> O      2.6103106700     1.7329417800    -2.2990944800
| 29> C      3.7263464500     0.4913799800    -0.6302380200
| 30> C      3.8068522600     0.1897684800     0.7311642500
| 31> C      4.9752674700    -0.2976603800     1.2695857500
| 32> C      6.0992757800    -0.5128381000     0.4645468100
| 33> O      7.1903888800    -1.0113502700     1.0957300800
| 34> C      8.3730490800    -1.2340782800     0.3529125100
| 35> C      6.0296455100    -0.2056163700    -0.8926836800
| 36> C      4.8584325200     0.3001348700    -1.4198620500
| 37> H     -7.2217630300    -0.6755788600     0.0714160700
| 38> H     -6.4105446700     0.6436623300    -0.7626319500
| 39> H     -6.0428715600    -1.0394493300    -1.1836743400
| 40> H     -4.8686824100     0.5507861800     2.6471584200
| 41> H     -6.5619495300     0.3063819900     2.2224723000
| 42> H     -5.6328181800     1.5943207700     1.4498518700
| 43> H     -4.3812095000    -1.8938348400     2.0713338000
| 44> H     -6.0682992400    -2.1382424700     1.6289441400
| 45> H     -4.7875004200    -2.5104597900     0.4712450200
| 46> H     -4.4378929800     0.4672207700    -1.8434023100
| 47> H     -2.2247634900     1.1042238800    -2.6194109700
| 48> H     -0.6316999900     0.3465997900     1.2690116200
| 49> H     -2.8317186600    -0.2911357500     2.0473666600
| 50> H      0.9985088100     2.0471100900    -2.6177956400
| 51> H      1.2057890900     0.0194964600     0.1332106100
| 52> H      2.9639000500     0.3672264500     1.3801796500
| 53> H      5.0519843700    -0.5231310600     2.3216873700
| 54> H      9.0967685700    -1.6137939200     1.0715872400
| 55> H      8.2143143600    -1.9771267400    -0.4336201800
| 56> H      8.7466198900    -0.3052363600    -0.0867791300
| 57> H      6.8780123900    -0.3522331900    -1.5415813800
| 58> H      4.8005236100     0.5487922400    -2.4697843900
| 59> *
| 60> 
| 61>                          ****END OF INPUT****
================================================================================

                       ****************************
                       * Single Point Calculation *
                       ****************************

---------------------------------
CARTESIAN COORDINATES (ANGSTROEM)
---------------------------------
  C     -6.277318   -0.360475   -0.367111
  C     -5.184245   -0.391912    0.705460
  C     -5.584038    0.575826    1.829940
  C     -5.096092   -1.823380    1.256639
  C     -3.823413    0.018414    0.167564
  C     -3.617650    0.426976   -1.146121
  C     -2.363008    0.792151   -1.595142
  C     -1.256766    0.750361   -0.748010
  C     -1.457506    0.355117    0.575068
  C     -2.715110    0.001931    1.015426
  C      0.061982    1.123240   -1.267104
  O      0.047228    1.897178   -2.345934
  C      1.234065    0.685881   -0.708049
  C      2.507594    1.028705   -1.271469
  O      2.610311    1.732942   -2.299094
  C      3.726346    0.491380   -0.630238
  C      3.806852    0.189768    0.731164
  C      4.975267   -0.297660    1.269586
  C      6.099276   -0.512838    0.464547
  O      7.190389   -1.011350    1.095730
  C      8.373049   -1.234078    0.352913
  C      6.029646   -0.205616   -0.892684
  C      4.858433    0.300135   -1.419862
  H     -7.221763   -0.675579    0.071416
  H     -6.410545    0.643662   -0.762632
  H     -6.042872   -1.039449   -1.183674
  H     -4.868682    0.550786    2.647158
  H     -6.561950    0.306382    2.222472
  H     -5.632818    1.594321    1.449852
  H     -4.381209   -1.893835    2.071334
  H     -6.068299   -2.138242    1.628944
  H     -4.787500   -2.510460    0.471245
  H     -4.437893    0.467221   -1.843402
  H     -2.224763    1.104224   -2.619411
  H     -0.631700    0.346600    1.269012
  H     -2.831719   -0.291136    2.047367
  H      0.998509    2.047110   -2.617796
  H      1.205789    0.019496    0.133211
  H      2.963900    0.367226    1.380180
  H      5.051984   -0.523131    2.321687
  H      9.096769   -1.613794    1.071587
  H      8.214314   -1.977127   -0.433620
  H      8.746620   -0.305236   -0.086779
  H      6.878012   -0.352233   -1.541581
  H      4.800524    0.548792   -2.469784

----------------------------
CARTESIAN COORDINATES (A.U.)
----------------------------
  NO LB      ZA    FRAG     MASS         X           Y           Z
   0 C     6.0000    0    12.011  -11.862412   -0.681199   -0.693739
   1 C     6.0000    0    12.011   -9.796803   -0.740606    1.333125
   2 C     6.0000    0    12.011  -10.552303    1.088154    3.458086
   3 C     6.0000    0    12.011   -9.630219   -3.445688    2.374703
   4 C     6.0000    0    12.011   -7.225204    0.034797    0.316649
   5 C     6.0000    0    12.011   -6.836368    0.806868   -2.165855
   6 C     6.0000    0    12.011   -4.465437    1.496948   -3.014381
   7 C     6.0000    0    12.011   -2.374943    1.417977   -1.413534
   8 C     6.0000    0    12.011   -2.754286    0.671073    1.086721
   9 C     6.0000    0    12.011   -5.130815    0.003650    1.918876
  10 C     6.0000    0    12.011    0.117130    2.122617   -2.394479
  11 O     8.0000    0    15.999    0.089248    3.585146   -4.433174
  12 C     6.0000    0    12.011    2.332045    1.296128   -1.338019
  13 C     6.0000    0    12.011    4.738667    1.943971   -2.402729
  14 O     8.0000    0    15.999    4.932772    3.274785   -4.344659
  15 C     6.0000    0    12.011    7.041774    0.928574   -1.190977
  16 C     6.0000    0    12.011    7.193908    0.358610    1.381700
  17 C     6.0000    0    12.011    9.401893   -0.562497    2.399169
  18 C     6.0000    0    12.011   11.525961   -0.969124    0.877866
  19 O     8.0000    0    15.999   13.587866   -1.911175    2.070630
  20 C     6.0000    0    12.011   15.822770   -2.332070    0.666908
  21 C     6.0000    0    12.011   11.394379   -0.388559   -1.686928
  22 C     6.0000    0    12.011    9.181107    0.567173   -2.683150
  23 H     1.0000    0     1.008  -13.647154   -1.276659    0.134957
  24 H     1.0000    0     1.008  -12.114174    1.216346   -1.441166
  25 H     1.0000    0     1.008  -11.419372   -1.964275   -2.236820
  26 H     1.0000    0     1.008   -9.200476    1.040835    5.002404
  27 H     1.0000    0     1.008  -12.400288    0.578978    4.199864
  28 H     1.0000    0     1.008  -10.644484    3.012830    2.739823
  29 H     1.0000    0     1.008   -8.279286   -3.578829    3.914254
  30 H     1.0000    0     1.008  -11.467424   -4.040693    3.078258
  31 H     1.0000    0     1.008   -9.047065   -4.744081    0.890524
  32 H     1.0000    0     1.008   -8.386402    0.882919   -3.483526
  33 H     1.0000    0     1.008   -4.204194    2.086681   -4.949969
  34 H     1.0000    0     1.008   -1.193740    0.654979    2.398084
  35 H     1.0000    0     1.008   -5.351173   -0.550167    3.868962
  36 H     1.0000    0     1.008    1.886908    3.868477   -4.946917
  37 H     1.0000    0     1.008    2.278611    0.036843    0.251732
  38 H     1.0000    0     1.008    5.600959    0.693957    2.608162
  39 H     1.0000    0     1.008    9.546867   -0.988574    4.387353
  40 H     1.0000    0     1.008   17.190401   -3.049629    2.025006
  41 H     1.0000    0     1.008   15.522805   -3.736228   -0.819423
  42 H     1.0000    0     1.008   16.528716   -0.576813   -0.163989
  43 H     1.0000    0     1.008   12.997560   -0.665624   -2.913167
  44 H     1.0000    0     1.008    9.071675    1.037067   -4.667216

--------------------------------
INTERNAL COORDINATES (ANGSTROEM)
--------------------------------
 C      0   0   0     0.000000000000     0.00000000     0.00000000
 C      1   0   0     1.531732951485     0.00000000     0.00000000
 C      2   1   0     1.536492107894   108.29176879     0.00000000
 C      2   1   3     1.536447350260   108.13540502   118.95906345
 C      2   1   3     1.519724086259   112.68243033   239.62288744
 C      5   2   1     1.391053094946   123.09384378     2.38280671
 C      6   5   2     1.381701778294   121.25470607   179.99743567
 C      7   6   5     1.393969047975   121.01071522     0.64734961
 C      8   7   6     1.395367297201   118.07018148   358.70946802
 C      9   8   7     1.378486429423   120.44560884     0.82087031
 C      8   7   6     1.465467176076   119.42270277   178.95051386
 O     11   8   7     1.327807185769   115.22069466    22.23812287
 C     11   8   7     1.370256431524   122.95669448   203.72556669
 C     13  11   8     1.434171155048   121.53272908   177.60075016
 O     14  13  11     1.250005548837   122.04629179   359.57343221
 C     14  13  11     1.478259876277   118.34674165   181.46834290
 C     16  14  13     1.396734342363   123.28559924   331.07522702
 C     17  16  14     1.375746600280   120.45934633   180.55372914
 C     18  17  16     1.399208285799   120.76819316   359.37508661
 O     19  18  17     1.355520011272   115.80263820   180.82098698
 C     20  19  18     1.414238614026   119.10943209   181.08010275
 C     19  18  17     1.393308353836   119.10425130     1.05732457
 C     22  19  18     1.380377201529   119.68357239   359.83248885
 H      1   2   3     1.087921210298   109.34807948   299.59583931
 H      1   2   3     1.087417733797   111.16617659    58.65297117
 H      1   2   3     1.087541853962   111.04538517   180.51945660
 H      3   2   1     1.086373030161   111.38767465   176.75627835
 H      3   2   1     1.087654668649   110.00112554    56.59783225
 H      3   2   1     1.088199141968   110.21438373   296.98009712
 H      4   2   1     1.086162696421   111.54749583   183.84468014
 H      4   2   1     1.087628757021   109.95169732   303.91824454
 H      4   2   1     1.088187064036   110.21917829    63.51900971
 H      6   5   2     1.077320503474   120.63641071     0.00000000
 H      7   6   5     1.079642623887   120.06451596   179.86912897
 H      9   8   7     1.078696202492   120.13842700   182.30823457
 H     10   9   8     1.079068212035   118.27288500   180.44498331
 H     12  11   8     1.000661560591   107.30799566   182.21531761
 H     13  11   8     1.073585771414   119.68900248     1.61839506
 H     17  16  14     1.078554935503   120.39418707   358.49503840
 H     18  17  16     1.078721617977   121.07530354   179.28660134
 H     21  20  19     1.088323129869   105.31943253   179.10089334
 H     21  20  19     1.093595628046   111.30845137   297.72140154
 H     21  20  19     1.093449221829   111.29235985    60.46499908
 H     22  19  18     1.078096043984   121.13086183   179.58660391
 H     23  22  19     1.080518787224   120.05843707   179.45157366

---------------------------
INTERNAL COORDINATES (A.U.)
---------------------------
 C      0   0   0     0.000000000000     0.00000000     0.00000000
 C      1   0   0     2.894555788609     0.00000000     0.00000000
 C      2   1   0     2.903549290851   108.29176879     0.00000000
 C      2   1   3     2.903464711180   108.13540502   118.95906345
 C      2   1   3     2.871862322154   112.68243033   239.62288744
 C      5   2   1     2.628709387192   123.09384378     2.38280671
 C      6   5   2     2.611037959727   121.25470607   179.99743567
 C      7   6   5     2.634219739836   121.01071522     0.64734961
 C      8   7   6     2.636862047939   118.07018148   358.70946802
 C      9   8   7     2.604961830936   120.44560884     0.82087031
 C      8   7   6     2.769331621035   119.42270277   178.95051386
 O     11   8   7     2.509191939756   115.22069466    22.23812287
 C     11   8   7     2.589409388825   122.95669448   203.72556669
 C     13  11   8     2.710190712209   121.53272908   177.60075016
 O     14  13  11     2.362168153184   122.04629179   359.57343221
 C     14  13  11     2.793506320927   118.34674165   181.46834290
 C     16  14  13     2.639445388909   123.28559924   331.07522702
 C     17  16  14     2.599784304203   120.45934633   180.55372914
 C     18  17  16     2.644120464474   120.76819316   359.37508661
 O     19  18  17     2.561561590353   115.80263820   180.82098698
 C     20  19  18     2.672523668526   119.10943209   181.08010275
 C     19  18  17     2.632971208855   119.10425130     1.05732457
 C     22  19  18     2.608534872399   119.68357239   359.83248885
 H      1   2   3     2.055873142747   109.34807948   299.59583931
 H      1   2   3     2.054921710046   111.16617659    58.65297117
 H      1   2   3     2.055156263164   111.04538517   180.51945660
 H      3   2   1     2.052947506283   111.38767465   176.75627835
 H      3   2   1     2.055369452028   110.00112554    56.59783225
 H      3   2   1     2.056398357489   110.21438373   296.98009712
 H      4   2   1     2.052550033118   111.54749583   183.84468014
 H      4   2   1     2.055320486147   109.95169732   303.91824454
 H      4   2   1     2.056375533504   110.21917829    63.51900971
 H      6   5   2     2.035840710023   120.63641071     0.00000000
 H      7   6   5     2.040228881654   120.06451596   179.86912897
 H      9   8   7     2.038440404411   120.13842700   182.30823457
 H     10   9   8     2.039143400566   118.27288500   180.44498331
 H     12  11   8     1.890976302260   107.30799566   182.21531761
 H     13  11   8     2.028783089248   119.68900248     1.61839506
 H     17  16  14     2.038173448489   120.39418707   358.49503840
 H     18  17  16     2.038488432718   121.07530354   179.28660134
 H     21  20  19     2.056632660664   105.31943253   179.10089334
 H     21  20  19     2.066596238260   111.30845137   297.72140154
 H     21  20  19     2.066319570607   111.29235985    60.46499908
 H     22  19  18     2.037306269193   121.13086183   179.58660391
 H     23  22  19     2.041884590410   120.05843707   179.45157366

---------------------
BASIS SET INFORMATION
---------------------
There are 3 groups of distinct atoms

 Group   1 Type C   : 8s4p2d contracted to 4s2p2d pattern {5111/31/11}
 Group   2 Type O   : 8s5p2d contracted to 4s3p2d pattern {5111/311/11}
 Group   3 Type H   : 4s2p contracted to 2s2p pattern {31/11}

Atom   0C    basis set group =>   1
Atom   1C    basis set group =>   1
Atom   2C    basis set group =>   1
Atom   3C    basis set group =>   1
Atom   4C    basis set group =>   1
Atom   5C    basis set group =>   1
Atom   6C    basis set group =>   1
Atom   7C    basis set group =>   1
Atom   8C    basis set group =>   1
Atom   9C    basis set group =>   1
Atom  10C    basis set group =>   1
Atom  11O    basis set group =>   2
Atom  12C    basis set group =>   1
Atom  13C    basis set group =>   1
Atom  14O    basis set group =>   2
Atom  15C    basis set group =>   1
Atom  16C    basis set group =>   1
Atom  17C    basis set group =>   1
Atom  18C    basis set group =>   1
Atom  19O    basis set group =>   2
Atom  20C    basis set group =>   1
Atom  21C    basis set group =>   1
Atom  22C    basis set group =>   1
Atom  23H    basis set group =>   3
Atom  24H    basis set group =>   3
Atom  25H    basis set group =>   3
Atom  26H    basis set group =>   3
Atom  27H    basis set group =>   3
Atom  28H    basis set group =>   3
Atom  29H    basis set group =>   3
Atom  30H    basis set group =>   3
Atom  31H    basis set group =>   3
Atom  32H    basis set group =>   3
Atom  33H    basis set group =>   3
Atom  34H    basis set group =>   3
Atom  35H    basis set group =>   3
Atom  36H    basis set group =>   3
Atom  37H    basis set group =>   3
Atom  38H    basis set group =>   3
Atom  39H    basis set group =>   3
Atom  40H    basis set group =>   3
Atom  41H    basis set group =>   3
Atom  42H    basis set group =>   3
Atom  43H    basis set group =>   3
Atom  44H    basis set group =>   3
---------------------------------
AUXILIARY/J BASIS SET INFORMATION
---------------------------------
There are 3 groups of distinct atoms

 Group   1 Type C   : 12s5p4d2f1g contracted to 6s4p3d1f1g pattern {711111/2111/211/2/1}
 Group   2 Type O   : 12s5p4d2f1g contracted to 6s4p3d1f1g pattern {711111/2111/211/2/1}
 Group   3 Type H   : 5s2p1d contracted to 3s1p1d pattern {311/2/1}

Atom   0C    basis set group =>   1
Atom   1C    basis set group =>   1
Atom   2C    basis set group =>   1
Atom   3C    basis set group =>   1
Atom   4C    basis set group =>   1
Atom   5C    basis set group =>   1
Atom   6C    basis set group =>   1
Atom   7C    basis set group =>   1
Atom   8C    basis set group =>   1
Atom   9C    basis set group =>   1
Atom  10C    basis set group =>   1
Atom  11O    basis set group =>   2
Atom  12C    basis set group =>   1
Atom  13C    basis set group =>   1
Atom  14O    basis set group =>   2
Atom  15C    basis set group =>   1
Atom  16C    basis set group =>   1
Atom  17C    basis set group =>   1
Atom  18C    basis set group =>   1
Atom  19O    basis set group =>   2
Atom  20C    basis set group =>   1
Atom  21C    basis set group =>   1
Atom  22C    basis set group =>   1
Atom  23H    basis set group =>   3
Atom  24H    basis set group =>   3
Atom  25H    basis set group =>   3
Atom  26H    basis set group =>   3
Atom  27H    basis set group =>   3
Atom  28H    basis set group =>   3
Atom  29H    basis set group =>   3
Atom  30H    basis set group =>   3
Atom  31H    basis set group =>   3
Atom  32H    basis set group =>   3
Atom  33H    basis set group =>   3
Atom  34H    basis set group =>   3
Atom  35H    basis set group =>   3
Atom  36H    basis set group =>   3
Atom  37H    basis set group =>   3
Atom  38H    basis set group =>   3
Atom  39H    basis set group =>   3
Atom  40H    basis set group =>   3
Atom  41H    basis set group =>   3
Atom  42H    basis set group =>   3
Atom  43H    basis set group =>   3
Atom  44H    basis set group =>   3


           ************************************************************
           *        Program running with 4 parallel MPI-processes     *
           *              working on a common directory               *
           ************************************************************
------------------------------------------------------------------------------
                             ORCA STARTUP CALCULATIONS
                           -- RI-GTO INTEGRALS CHOSEN --
------------------------------------------------------------------------------
------------------------------------------------------------------------------
                   ___                                                        
                  /   \      - P O W E R E D   B Y -                         
                 /     \                                                     
                 |  |  |   _    _      __       _____    __    __             
                 |  |  |  | |  | |    /  \     |  _  \  |  |  /  |          
                  \  \/   | |  | |   /    \    | | | |  |  | /  /          
                 / \  \   | |__| |  /  /\  \   | |_| |  |  |/  /          
                |  |  |   |  __  | /  /__\  \  |    /   |      \           
                |  |  |   | |  | | |   __   |  |    \   |  |\   \          
                \     /   | |  | | |  |  |  |  | |\  \  |  | \   \       
                 \___/    |_|  |_| |__|  |__|  |_| \__\ |__|  \__/        
                                                                              
                      - O R C A' S   B I G   F R I E N D -                    
                                      &                                       
                       - I N T E G R A L  F E E D E R -                       
                                                                              
 v1 FN, 2020, v2 2021, v3 2022-2024                                           
------------------------------------------------------------------------------


----------------------
SHARK INTEGRAL PACKAGE
----------------------

Number of atoms                             ...     45
Number of basis functions                   ...    645
Number of shells                            ...    275
Maximum angular momentum                    ...      2
Integral batch strategy                     ... SHARK/LIBINT Hybrid
RI-J (if used) integral strategy            ... SPLIT-RIJ (Revised 2003 algorithm where possible)
Printlevel                                  ...      1
Contraction scheme used                     ... SEGMENTED contraction
Prescreening option                         ... SCHWARTZ
   Thresh                                   ... 2.500e-11
   Tcut                                     ... 2.500e-12
   Tpresel                                  ... 2.500e-12 
Coulomb Range Separation                    ... NOT USED
Exchange Range Separation                   ... NOT USED
Multipole approximations                    ... NOT USED
Finite Nucleus Model                        ... NOT USED
CABS basis                                  ... NOT available
Auxiliary Coulomb fitting basis             ... AVAILABLE
   # of basis functions in Aux-J            ...   1369
   # of shells in Aux-J                     ...    455
   Maximum angular momentum in Aux-J        ...      4
Auxiliary J/K fitting basis                 ... NOT available
Auxiliary Correlation fitting basis         ... NOT available
Auxiliary 'external' fitting basis          ... NOT available

Checking pre-screening integrals            ... done (  0.0 sec) Dimension = 275
   => SHARK Basis and OBASIS are compatible. Storing Pre-screening
Shell pair information
Shell pair cut-off parameter TPreSel        ...   2.5e-12
Total number of shell pairs                 ...     37950
Shell pairs after pre-screening             ...     26797
Total number of primitive shell pairs       ...    105018
Primitive shell pairs kept                  ...     52611
          la=0 lb=0:   6550 shell pairs
          la=1 lb=0:   8746 shell pairs
          la=1 lb=1:   3010 shell pairs
          la=2 lb=0:   4558 shell pairs
          la=2 lb=1:   3098 shell pairs
          la=2 lb=2:    835 shell pairs

Checking whether 4 symmetric matrices of dimension 645 fit in memory
:Max Core in MB      =   2500.00
 MB in use           =     27.97
 MB left             =   2472.03
 MB needed           =      6.36
 Data fit in memory  = YES
Calculating RI/J V-Matrix + Cholesky decomp.... done (  0.1 sec)
Calculating Nuclear repulsion               ... done (  0.0 sec) ENN=   1743.121930489142 Eh

Diagonalization of the overlap matrix:
Smallest eigenvalue                        ... 3.331e-06
Time for diagonalization                   ...    0.074 sec
Threshold for overlap eigenvalues          ... 1.000e-07
Number of eigenvalues below threshold      ... 0
Time for construction of square roots      ...    0.043 sec
Total time needed                          ...    0.122 sec

-------------------
DFT GRID GENERATION
-------------------

General Integration Accuracy     IntAcc      ... 4.388
Radial Grid Type                 RadialGrid  ... OptM3 with GC (2021)
Angular Grid (max. ang.)         AngularGrid ... 4 (Lebedev-302)
Angular grid pruning method      GridPruning ... 4 (adaptive)
Weight generation scheme         WeightScheme... mBecke (2022)
Basis function cutoff            BFCut       ... 1.0000e-11
Integration weight cutoff        WCut        ... 1.0000e-14
Partially contracted basis set               ... off
Rotationally invariant grid construction     ... off
Angular grids for H and He will be reduced by one unit
Diffuse basis detected: some atoms will have their outermost
                        angular grid increased by 1.

Total number of grid points                  ...   212277
Total number of batches                      ...     3341
Average number of points per batch           ...       63
Average number of grid points per atom       ...     4717

--------------------
COSX GRID GENERATION
--------------------

GRIDX 1
-------
General Integration Accuracy     IntAcc      ... 3.816
Radial Grid Type                 RadialGrid  ... OptM3 with GC (2021)
Angular Grid (max. ang.)         AngularGrid ... 1 (Lebedev-50)
Angular grid pruning method      GridPruning ... 4 (adaptive)
Weight generation scheme         WeightScheme... mBecke (2022)
Basis function cutoff            BFCut       ... 1.0000e-11
Integration weight cutoff        WCut        ... 1.0000e-14
Partially contracted basis set               ... on
Rotationally invariant grid construction     ... off
Angular grids for H and He will be reduced by one unit
Diffuse basis detected: some atoms will have their outermost
                        angular grid increased by 1.

Total number of grid points                  ...    26493
Total number of batches                      ...      229
Average number of points per batch           ...      115
Average number of grid points per atom       ...      589
UseSFitting                                  ... on

GRIDX 2
-------
General Integration Accuracy     IntAcc      ... 4.020
Radial Grid Type                 RadialGrid  ... OptM3 with GC (2021)
Angular Grid (max. ang.)         AngularGrid ... 2 (Lebedev-110)
Angular grid pruning method      GridPruning ... 4 (adaptive)
Weight generation scheme         WeightScheme... mBecke (2022)
Basis function cutoff            BFCut       ... 1.0000e-11
Integration weight cutoff        WCut        ... 1.0000e-14
Partially contracted basis set               ... on
Rotationally invariant grid construction     ... off
Angular grids for H and He will be reduced by one unit
Diffuse basis detected: some atoms will have their outermost
                        angular grid increased by 1.

Total number of grid points                  ...    59194
Total number of batches                      ...      484
Average number of points per batch           ...      122
Average number of grid points per atom       ...     1315
UseSFitting                                  ... on

GRIDX 3
-------
General Integration Accuracy     IntAcc      ... 4.338
Radial Grid Type                 RadialGrid  ... OptM3 with GC (2021)
Angular Grid (max. ang.)         AngularGrid ... 3 (Lebedev-194)
Angular grid pruning method      GridPruning ... 4 (adaptive)
Weight generation scheme         WeightScheme... mBecke (2022)
Basis function cutoff            BFCut       ... 1.0000e-11
Integration weight cutoff        WCut        ... 1.0000e-14
Partially contracted basis set               ... on
Rotationally invariant grid construction     ... off
Angular grids for H and He will be reduced by one unit
Diffuse basis detected: some atoms will have their outermost
                        angular grid increased by 1.

Total number of grid points                  ...   132687
Total number of batches                      ...     1058
Average number of points per batch           ...      125
Average number of grid points per atom       ...     2949
UseSFitting                                  ... on
Grids setup in   5.9 sec
Initializing property integral containers    ... done (  0.1 sec)

SHARK setup successfully completed in   6.7 seconds

Maximum memory used throughout the entire STARTUP-calculation: 75.0 MB


           ************************************************************
           *        Program running with 4 parallel MPI-processes     *
           *              working on a common directory               *
           ************************************************************
-------------------------------------------------------------------------------
                                 ORCA GUESS
                   Start orbitals & Density for SCF / CASSCF
-------------------------------------------------------------------------------

------------
SCF SETTINGS
------------
Hamiltonian:
 Density Functional     Method          .... DFT(GTOs)
 Exchange Functional    Exchange        .... B88
   X-Alpha parameter    XAlpha          ....  0.666667
   Becke's b parameter  XBeta           ....  0.004200
 Correlation Functional Correlation     .... LYP
 LDA part of GGA corr.  LDAOpt          .... VWN-5
 Gradients option       PostSCFGGA      .... off
 Hybrid DFT is turned on
   Fraction HF Exchange ScalHFX         ....  0.200000
   Scaling of DF-GGA-X  ScalDFX         ....  0.720000
   Scaling of DF-GGA-C  ScalDFC         ....  0.810000
   Scaling of DF-LDA-C  ScalLDAC        ....  1.000000
   Perturbative correction              ....  0.000000
   NL short-range parameter             ....  4.800000
 RI-approximation to the Coulomb term is turned on
   Number of AuxJ basis functions       .... 1369
   RIJ-COSX (HFX calculated with COS-X)).... on


General Settings:
 Integral files         IntName         .... td
 Hartree-Fock type      HFTyp           .... RHF
 Total Charge           Charge          ....    0
 Multiplicity           Mult            ....    1
 Number of Electrons    NEL             ....  166
 Basis Dimension        Dim             ....  645
 Nuclear Repulsion      ENuc            ....   1743.1219304891 Eh

Convergence Acceleration:
 AO-DIIS                CNVDIIS         .... on
   Start iteration      DIISMaxIt       ....    12
   Startup error        DIISStart       ....  0.200000
   # of expansion vecs  DIISMaxEq       ....     5
   Bias factor          DIISBfac        ....   1.050
   Max. coefficient     DIISMaxC        ....  10.000
 MO-DIIS                CNVKDIIS        .... off
 Trust-Rad. Augm. Hess. CNVTRAH         .... auto
   Auto Start mean grad. ratio tolernc. ....  1.125000
   Auto Start start iteration           ....    50
   Auto Start num. interpolation iter.  ....    10
   Max. Number of Micro iterations      ....    24
   Max. Number of Macro iterations      .... Maxiter - #DIIS iter
   Number of Davidson start vectors     ....     2
   Converg. threshold    (grad. norm)   ....   1.000e-05
   Grad. Scal. Fac. for Micro threshold ....   0.100
   Minimum threshold for Micro iter.    ....   1.000e-02
   NR start threshold (gradient norm)   ....   1.000e-04
   Initial trust radius                 ....   0.400
   Minimum AH scaling param. (alpha)    ....   1.000
   Maximum AH scaling param. (alpha)    .... 1000.000
   Quad. conv. algorithm                .... NR
   White noise on init. David. guess    .... on
   Maximum white noise                  ....   0.010
   Pseudo random numbers                .... off
   Inactive MOs                         .... canonical
   Orbital update algorithm             .... Taylor
   Preconditioner                       .... Diag
   Full preconditioner red. dimension   ....   250
 SOSCF                 CNVSOSCF           .... on
   Start iteration     SOSCFMaxIt         ....   150
   Startup grad/error  SOSCFStart         ....  0.003300
   Hessian update      SOSCFHessUp        .... L-BFGS
   Autom. constraints  SOSCFAutoConstrain .... off
 Level Shifting         CNVShift        .... on
   Level shift para.    LevelShift      ....    0.2500
   Turn off err/grad.   ShiftErr        ....    0.0010
 Zerner damping         CNVZerner       .... off
 Static damping         CNVDamp         .... on
   Fraction old density DampFac         ....    0.7000
   Max. Damping (<1)    DampMax         ....    0.9800
   Min. Damping (>=0)   DampMin         ....    0.0000
   Turn off err/grad.   DampErr         ....    0.1000

SCF Procedure:
 Maximum # iterations   MaxIter         ....   300
 SCF integral mode      SCFMode         .... Direct
   Integral package                     .... SHARK and LIBINT hybrid scheme
 Reset frequency        DirectResetFreq ....    20
 Integral Threshold     Thresh          ....  2.500e-11 Eh
 Primitive CutOff       TCut            ....  2.500e-12 Eh

Convergence Tolerance:
 Convergence Check Mode ConvCheckMode   .... Total+1el-Energy
 Convergence forced     ConvForced      .... 1
 Energy Change          TolE            ....  1.000e-08 Eh
 1-El. energy change                    ....  1.000e-05 Eh
 Orbital Gradient       TolG            ....  1.000e-05
 Orbital Rotation angle TolX            ....  1.000e-05
 DIIS Error             TolErr          ....  5.000e-07

------------------------------
INITIAL GUESS: MODEL POTENTIAL
------------------------------
Loading Hartree-Fock densities                     ... done
Calculating cut-offs                               ... done
Initializing the effective Hamiltonian             ... done
Setting up the integral package (SHARK)            ... done
Starting the Coulomb interaction                   ... done (   1.2 sec)
Making the grid                                    ... done (   0.8 sec)
Mapping shells                                     ... done
Starting the XC term evaluation                    ... done (   1.3 sec)
  promolecular density results
     # of electrons  =    165.987714813
     EX              =   -134.072726693
     EC              =     -5.606955205
     EX+EC           =   -139.679681898
Transforming the Hamiltonian                       ... done (   0.0 sec)
Diagonalizing the Hamiltonian                      ... done (   0.1 sec)
Back transforming the eigenvectors                 ... done (   0.0 sec)
Now organizing SCF variables                       ... done
                      ------------------
                      INITIAL GUESS DONE (   3.6 sec)
                      ------------------
             **** ENERGY FILE WAS UPDATED (td.en.tmp) ****
Finished Guess after   4.0 sec
Maximum memory used throughout the entire GUESS-calculation: 43.7 MB


           ************************************************************
           *        Program running with 4 parallel MPI-processes     *
           *              working on a common directory               *
           ************************************************************

-------------------------------------------------------------------------------------------
                                      ORCA LEAN-SCF
                              memory conserving SCF solver
-------------------------------------------------------------------------------------------

--------------------
CPCM SOLVATION MODEL
--------------------
CPCM parameters:
  Epsilon                                         ...      25.4510
  Refrac                                          ...       1.3611
  Rsolv                                           ...       1.3000
  Surface type                                    ... GAUSSIAN VDW
  Discretization scheme                           ... Constant charge density
    Threshold for H atoms                         ...       5.0000 (charges/Ang^2)
    Threshold for non-H atoms                     ...       5.0000 (charges/Ang^2)
  Epsilon function type                           ...         CPCM
Solvent:                                          ... ETHANOL
Radii:
  Scheme                                          ... Element-dependent radii
  Radius for C  used is    3.8550 Bohr (=   2.0400 Ang.)
  Radius for O  used is    3.4469 Bohr (=   1.8240 Ang.)
  Radius for H  used is    2.4944 Bohr (=   1.3200 Ang.)
Calculating surface                               ...        done! (  0.0s)
Cavity surface points                             ...         3819
Cavity Volume                                     ...    2609.0539
Cavity Surface-area                               ...    1339.9773
Calculating surface distance matrix               ...        done! (  0.1s)
Performing Cholesky decomposition & store         ...        done! (  0.7s)
Overall time for CPCM initialization              ...                 0.9s

----------------------------------------D-I-I-S--------------------------------------------
Iteration    Energy (Eh)           Delta-E    RMSDP     MaxDP     DIISErr   Damp  Time(sec)
-------------------------------------------------------------------------------------------
               ***  Starting incremental Fock matrix formation  ***
    1    -999.2506956087190702     0.00e+00  3.46e-02  2.07e+00  2.39e-01  0.700  38.8
    2    -999.4980817040404872    -2.47e-01  2.46e-02  1.46e+00  9.27e-02  0.700  18.8
                               ***Turning on AO-DIIS***
    3    -999.6026408026377794    -1.05e-01  1.46e-02  8.15e-01  3.89e-02  0.700  18.7
    4    -999.6639584908139113    -6.13e-02  3.07e-02  1.72e+00  2.05e-02  0.000  18.1
    5    -999.7960409968027307    -1.32e-01  1.75e-03  6.43e-02  5.38e-03  0.000  18.5
                              *** Initializing SOSCF ***
---------------------------------------S-O-S-C-F--------------------------------------
Iteration    Energy (Eh)           Delta-E    RMSDP     MaxDP     MaxGrad    Time(sec)
--------------------------------------------------------------------------------------
    6    -999.7967013396728362    -6.60e-04  4.23e-04  1.37e-02  1.97e-03    16.8
               *** Restarting incremental Fock matrix formation ***
    7    -999.7969359567796346    -2.35e-04  1.40e-03  2.56e-02  1.99e-04    41.1
    8    -999.7969370638697910    -1.11e-06  3.10e-04  8.22e-03  3.36e-04    31.6
    9    -999.7969435060331307    -6.44e-06  3.15e-04  7.46e-03  1.08e-04    27.6
   10    -999.7969433820217091     1.24e-07  7.69e-05  3.50e-03  7.22e-05    27.5
   11    -999.7969441395139256    -7.57e-07  9.14e-05  2.35e-03  9.42e-06    22.1
   12    -999.7969441600735081    -2.06e-08  1.43e-04  6.49e-03  1.64e-05    21.2
   13    -999.7969441614104653    -1.34e-09  1.10e-04  3.70e-03  2.22e-06    18.7
                 **** Energy Check signals convergence ****

               *****************************************************
               *                     SUCCESS                       *
               *           SCF CONVERGED AFTER  13 CYCLES          *
               *****************************************************

Recomputing exchange energy using gridx3       ... done (   67.204 sec)
Old exchange energy                            :    -27.209998067 Eh
New exchange energy                            :    -27.210076824 Eh
Exchange energy change after final integration :     -0.000078757 Eh
Total energy after final integration           :   -999.797022932 Eh
             **** ENERGY FILE WAS UPDATED (td.en.tmp) ****

----------------
TOTAL SCF ENERGY
----------------

Total Energy       :       -999.79702293154105 Eh          -27205.86011 eV

Components:
Nuclear Repulsion  :       1743.12193048914150 Eh           47432.75916 eV
Electronic Energy  :      -2742.90078807884038 Eh          -74638.12497 eV
One Electron Energy:      -4818.73630392595351 Eh         -131124.48107 eV
Two Electron Energy:       2075.83551584711313 Eh           56486.35610 eV
CPCM Dielectric    :         -0.01808658452351 Eh              -0.49216 eV

Virial components:
Potential Energy   :      -1989.57825598255590 Eh          -54139.17673 eV
Kinetic Energy     :        989.78123305101485 Eh           26933.31661 eV
Virial Ratio       :          2.01011919558189

DFT components:
N(Alpha)           :       83.000053294383 electrons
N(Beta)            :       83.000053294383 electrons
N(Total)           :      166.000106588765 electrons
E(X)               :     -108.086581916455 Eh       
E(C)               :       -6.605460203324 Eh       
E(XC)              :     -114.692042119779 Eh       

CPCM Solvation Model Properties:
Surface-charge          :         -0.04126358943620
Corrected charge        :          0.00000000000000
Outlying charge corr.   :          0.00008030201991 Eh               0.00219 eV
Free-energy (cav+disp)  :  This term is not implemented in the current solvation scheme

---------------
SCF CONVERGENCE
---------------

  Last Energy change         ...    1.3370e-09  Tolerance :   1.0000e-08
  Last MAX-Density change    ...    3.7006e-03  Tolerance :   1.0000e-07
  Last RMS-Density change    ...    1.0981e-04  Tolerance :   5.0000e-09
  Last DIIS Error            ...    1.9669e-03  Tolerance :   5.0000e-07
  Last Orbital Gradient      ...    2.2192e-06  Tolerance :   1.0000e-05
  Last Orbital Rotation      ...    7.6443e-06  Tolerance :   1.0000e-05


----------------
ORBITAL ENERGIES
----------------

  NO   OCC          E(Eh)            E(eV) 
   0   2.0000     -19.180213      -521.9201 
   1   2.0000     -19.178293      -521.8679 
   2   2.0000     -19.130185      -520.5588 
   3   2.0000     -10.277521      -279.6656 
   4   2.0000     -10.273543      -279.5573 
   5   2.0000     -10.258851      -279.1575 
   6   2.0000     -10.234491      -278.4947 
   7   2.0000     -10.201389      -277.5939 
   8   2.0000     -10.198066      -277.5035 
   9   2.0000     -10.197412      -277.4857 
  10   2.0000     -10.196563      -277.4626 
  11   2.0000     -10.196169      -277.4519 
  12   2.0000     -10.194115      -277.3960 
  13   2.0000     -10.192934      -277.3638 
  14   2.0000     -10.191874      -277.3350 
  15   2.0000     -10.191173      -277.3159 
  16   2.0000     -10.189062      -277.2585 
  17   2.0000     -10.186192      -277.1804 
  18   2.0000     -10.185509      -277.1618 
  19   2.0000     -10.178737      -276.9775 
  20   2.0000     -10.166868      -276.6545 
  21   2.0000     -10.166613      -276.6476 
  22   2.0000     -10.164684      -276.5951 
  23   2.0000      -1.074388       -29.2356 
  24   2.0000      -1.068637       -29.0791 
  25   2.0000      -1.023704       -27.8564 
  26   2.0000      -0.869589       -23.6627 
  27   2.0000      -0.862616       -23.4730 
  28   2.0000      -0.821144       -22.3445 
  29   2.0000      -0.787235       -21.4218 
  30   2.0000      -0.766956       -20.8699 
  31   2.0000      -0.755721       -20.5642 
  32   2.0000      -0.749244       -20.3880 
  33   2.0000      -0.734434       -19.9850 
  34   2.0000      -0.702505       -19.1161 
  35   2.0000      -0.678694       -18.4682 
  36   2.0000      -0.677971       -18.4485 
  37   2.0000      -0.660621       -17.9764 
  38   2.0000      -0.627003       -17.0616 
  39   2.0000      -0.614379       -16.7181 
  40   2.0000      -0.605725       -16.4826 
  41   2.0000      -0.590139       -16.0585 
  42   2.0000      -0.569445       -15.4954 
  43   2.0000      -0.551340       -15.0027 
  44   2.0000      -0.543289       -14.7836 
  45   2.0000      -0.524245       -14.2654 
  46   2.0000      -0.506672       -13.7872 
  47   2.0000      -0.488657       -13.2970 
  48   2.0000      -0.483641       -13.1605 
  49   2.0000      -0.475169       -12.9300 
  50   2.0000      -0.467750       -12.7281 
  51   2.0000      -0.461677       -12.5629 
  52   2.0000      -0.453686       -12.3454 
  53   2.0000      -0.450911       -12.2699 
  54   2.0000      -0.440808       -11.9950 
  55   2.0000      -0.437556       -11.9065 
  56   2.0000      -0.437179       -11.8962 
  57   2.0000      -0.432331       -11.7643 
  58   2.0000      -0.429857       -11.6970 
  59   2.0000      -0.420842       -11.4517 
  60   2.0000      -0.419397       -11.4124 
  61   2.0000      -0.402942       -10.9646 
  62   2.0000      -0.396624       -10.7927 
  63   2.0000      -0.395411       -10.7597 
  64   2.0000      -0.394823       -10.7437 
  65   2.0000      -0.381482       -10.3807 
  66   2.0000      -0.376636       -10.2488 
  67   2.0000      -0.373910       -10.1746 
  68   2.0000      -0.366819        -9.9816 
  69   2.0000      -0.364837        -9.9277 
  70   2.0000      -0.362386        -9.8610 
  71   2.0000      -0.353581        -9.6214 
  72   2.0000      -0.335249        -9.1226 
  73   2.0000      -0.332129        -9.0377 
  74   2.0000      -0.329984        -8.9793 
  75   2.0000      -0.327698        -8.9171 
  76   2.0000      -0.316840        -8.6216 
  77   2.0000      -0.276272        -7.5178 
  78   2.0000      -0.272949        -7.4273 
  79   2.0000      -0.268056        -7.2942 
  80   2.0000      -0.263823        -7.1790 
  81   2.0000      -0.243267        -6.6196 
  82   2.0000      -0.229360        -6.2412 
  83   0.0000      -0.080203        -2.1824 
  84   0.0000      -0.026165        -0.7120 
  85   0.0000      -0.019708        -0.5363 
  86   0.0000      -0.016289        -0.4433 
  87   0.0000       0.016629         0.4525 
  88   0.0000       0.022302         0.6069 
  89   0.0000       0.024244         0.6597 
  90   0.0000       0.031752         0.8640 
  91   0.0000       0.042045         1.1441 
  92   0.0000       0.048808         1.3281 
  93   0.0000       0.052325         1.4238 
*Only the first 10 virtual orbitals were printed.

                    ********************************
                    * MULLIKEN POPULATION ANALYSIS *
                    ********************************

-----------------------
MULLIKEN ATOMIC CHARGES
-----------------------
   0 C :    1.810915
   1 C :   -4.943505
   2 C :    1.692814
   3 C :    1.789893
   4 C :   -0.593557
   5 C :   -0.849539
   6 C :   -0.126519
   7 C :   -1.491670
   8 C :    0.225387
   9 C :   -0.351462
  10 C :   -0.033919
  11 O :   -0.387493
  12 C :    0.230607
  13 C :    0.468575
  14 O :   -0.724964
  15 C :   -1.191100
  16 C :    0.223169
  17 C :   -0.488420
  18 C :    0.112183
  19 O :   -0.882842
  20 C :    1.142603
  21 C :    0.008890
  22 C :   -0.162393
  23 H :   -0.388431
  24 H :    0.167108
  25 H :    0.172244
  26 H :   -0.160247
  27 H :    0.184678
  28 H :   -0.019890
  29 H :   -0.153301
  30 H :    0.138727
  31 H :    0.005640
  32 H :    0.792557
  33 H :    0.893580
  34 H :    0.711894
  35 H :    0.460125
  36 H :    0.226929
  37 H :    0.427576
  38 H :    0.541831
  39 H :    0.194293
  40 H :   -0.663339
  41 H :    0.100137
  42 H :    0.106557
  43 H :    0.283181
  44 H :    0.500499
Sum of atomic charges:   -0.0000000

--------------------------------
MULLIKEN REDUCED ORBITAL CHARGES
--------------------------------
  0 C s       :     1.954324  s :     1.954324
      pz      :     0.756765  p :     2.226801
      px      :     0.818105
      py      :     0.651931
      dz2     :     0.068791  d :     0.007960
      dxz     :     0.000651
      dyz     :    -0.002672
      dx2y2   :    -0.053652
      dxy     :    -0.005158

  1 C s       :     4.793571  s :     4.793571
      pz      :     1.082413  p :     3.126796
      px      :     0.940089
      py      :     1.104293
      dz2     :     0.853664  d :     3.023139
      dxz     :     0.381750
      dyz     :     0.651047
      dx2y2   :     0.585123
      dxy     :     0.551556

  2 C s       :     2.052512  s :     2.052512
      pz      :     0.829784  p :     2.345927
      px      :     0.733559
      py      :     0.782585
      dz2     :     0.009926  d :    -0.091253
      dxz     :    -0.013788
      dyz     :    -0.003838
      dx2y2   :    -0.050566
      dxy     :    -0.032987

  3 C s       :     1.944456  s :     1.944456
      pz      :     0.710004  p :     2.344590
      px      :     0.702721
      py      :     0.931865
      dz2     :    -0.023808  d :    -0.078940
      dxz     :    -0.067547
      dyz     :    -0.014406
      dx2y2   :    -0.037383
      dxy     :     0.064204

  4 C s       :     2.657496  s :     2.657496
      pz      :     0.587133  p :     2.255924
      px      :     0.741291
      py      :     0.927499
      dz2     :     0.589939  d :     1.680138
      dxz     :     0.887308
      dyz     :     0.031469
      dx2y2   :     0.118115
      dxy     :     0.053307

  5 C s       :     3.436462  s :     3.436462
      pz      :     0.799642  p :     2.155593
      px      :     0.415518
      py      :     0.940433
      dz2     :     0.044892  d :     1.257484
      dxz     :     1.010352
      dyz     :     0.094607
      dx2y2   :     0.016638
      dxy     :     0.090995

  6 C s       :     2.900391  s :     2.900391
      pz      :     0.536075  p :     2.277771
      px      :     0.869282
      py      :     0.872414
      dz2     :     0.462320  d :     0.948357
      dxz     :     0.122018
      dyz     :     0.066662
      dx2y2   :     0.279859
      dxy     :     0.017498

  7 C s       :     2.877289  s :     2.877289
      pz      :     0.943757  p :     2.879466
      px      :     0.878531
      py      :     1.057177
      dz2     :     0.696157  d :     1.734915
      dxz     :     0.721511
      dyz     :     0.077933
      dx2y2   :     0.150547
      dxy     :     0.088768

  8 C s       :     2.992443  s :     2.992443
      pz      :     0.726877  p :     2.010004
      px      :     0.404767
      py      :     0.878360
      dz2     :     0.051705  d :     0.772165
      dxz     :     0.667090
      dyz     :     0.059471
      dx2y2   :    -0.047909
      dxy     :     0.041808

  9 C s       :     3.382979  s :     3.382979
      pz      :     0.483197  p :     2.005326
      px      :     0.626090
      py      :     0.896040
      dz2     :     0.563946  d :     0.963156
      dxz     :     0.036239
      dyz     :     0.082288
      dx2y2   :     0.310672
      dxy     :    -0.029988

 10 C s       :     3.170612  s :     3.170612
      pz      :     0.860951  p :     2.579328
      px      :     0.895880
      py      :     0.822497
      dz2     :     0.049020  d :     0.283980
      dxz     :     0.003420
      dyz     :     0.138752
      dx2y2   :     0.124210
      dxy     :    -0.031422

 11 O s       :     3.766216  s :     3.766216
      pz      :     1.472797  p :     4.578141
      px      :     1.492682
      py      :     1.612662
      dz2     :     0.008825  d :     0.043136
      dxz     :     0.016683
      dyz     :     0.005030
      dx2y2   :     0.001726
      dxy     :     0.010873

 12 C s       :     3.209983  s :     3.209983
      pz      :     0.814775  p :     2.353360
      px      :     0.635164
      py      :     0.903421
      dz2     :     0.050822  d :     0.206049
      dxz     :     0.060756
      dyz     :     0.029646
      dx2y2   :     0.050447
      dxy     :     0.014379

 13 C s       :     2.894401  s :     2.894401
      pz      :     0.822774  p :     2.401089
      px      :     0.797604
      py      :     0.780711
      dz2     :     0.082575  d :     0.235935
      dxz     :     0.012205
      dyz     :     0.038524
      dx2y2   :     0.075288
      dxy     :     0.027343

 14 O s       :     3.990078  s :     3.990078
      pz      :     1.361241  p :     4.688459
      px      :     1.871595
      py      :     1.455623
      dz2     :     0.013642  d :     0.046427
      dxz     :     0.012500
      dyz     :     0.007646
      dx2y2   :     0.003092
      dxy     :     0.009546

 15 C s       :     3.091979  s :     3.091979
      pz      :     0.921388  p :     2.917896
      px      :     0.936736
      py      :     1.059773
      dz2     :     0.378690  d :     1.181224
      dxz     :     0.608876
      dyz     :     0.056139
      dx2y2   :     0.093332
      dxy     :     0.044187

 16 C s       :     2.860590  s :     2.860590
      pz      :     0.791060  p :     2.121731
      px      :     0.467305
      py      :     0.863366
      dz2     :     0.119478  d :     0.794509
      dxz     :     0.509417
      dyz     :     0.102294
      dx2y2   :     0.043933
      dxy     :     0.019388

 17 C s       :     3.411435  s :     3.411435
      pz      :     0.568998  p :     2.431010
      px      :     0.917130
      py      :     0.944882
      dz2     :     0.336414  d :     0.645975
      dxz     :     0.069252
      dyz     :     0.020897
      dx2y2   :     0.165566
      dxy     :     0.053846

 18 C s       :     2.383076  s :     2.383076
      pz      :     0.733578  p :     2.400612
      px      :     0.760517
      py      :     0.906518
      dz2     :     0.314343  d :     1.104129
      dxz     :     0.534427
      dyz     :     0.048115
      dx2y2   :     0.085662
      dxy     :     0.121583

 19 O s       :     3.912345  s :     3.912345
      pz      :     1.702077  p :     4.761373
      px      :     1.300811
      py      :     1.758484
      dz2     :     0.043488  d :     0.209124
      dxz     :     0.051916
      dyz     :     0.021356
      dx2y2   :     0.044248
      dxy     :     0.048116

 20 C s       :     2.548078  s :     2.548078
      pz      :     0.698246  p :     2.245251
      px      :     0.672176
      py      :     0.874829
      dz2     :     0.009180  d :     0.064068
      dxz     :     0.004327
      dyz     :     0.014471
      dx2y2   :     0.011378
      dxy     :     0.024712

 21 C s       :     3.098901  s :     3.098901
      pz      :     0.838009  p :     2.341668
      px      :     0.553972
      py      :     0.949687
      dz2     :     0.049643  d :     0.550542
      dxz     :     0.366264
      dyz     :     0.081451
      dx2y2   :     0.025346
      dxy     :     0.027838

 22 C s       :     2.964761  s :     2.964761
      pz      :     0.616849  p :     2.338130
      px      :     0.839845
      py      :     0.881436
      dz2     :     0.440296  d :     0.859503
      dxz     :     0.108916
      dyz     :     0.044889
      dx2y2   :     0.198158
      dxy     :     0.067244

 23 H s       :     1.412012  s :     1.412012
      pz      :     0.040450  p :    -0.023580
      px      :    -0.005270
      py      :    -0.058761

 24 H s       :     0.913090  s :     0.913090
      pz      :    -0.063875  p :    -0.080198
      px      :    -0.043606
      py      :     0.027283

 25 H s       :     0.905780  s :     0.905780
      pz      :    -0.041135  p :    -0.078025
      px      :    -0.011244
      py      :    -0.025646

 26 H s       :     1.082929  s :     1.082929
      pz      :    -0.000059  p :     0.077318
      px      :     0.092423
      py      :    -0.015046

 27 H s       :     0.852058  s :     0.852058
      pz      :    -0.042903  p :    -0.036736
      px      :     0.021340
      py      :    -0.015173

 28 H s       :     1.015229  s :     1.015229
      pz      :     0.027990  p :     0.004660
      px      :    -0.042599
      py      :     0.019269

 29 H s       :     1.071278  s :     1.071278
      pz      :     0.010488  p :     0.082023
      px      :     0.034177
      py      :     0.037358

 30 H s       :     0.894862  s :     0.894862
      pz      :    -0.069067  p :    -0.033589
      px      :     0.048722
      py      :    -0.013244

 31 H s       :     0.995791  s :     0.995791
      pz      :     0.046941  p :    -0.001431
      px      :    -0.042196
      py      :    -0.006176

 32 H s       :     0.084563  s :     0.084563
      pz      :     0.020468  p :     0.122880
      px      :     0.067451
      py      :     0.034960

 33 H s       :     0.003533  s :     0.003533
      pz      :     0.062095  p :     0.102887
      px      :     0.022807
      py      :     0.017985

 34 H s       :     0.223655  s :     0.223655
      pz      :     0.013843  p :     0.064452
      px      :     0.037313
      py      :     0.013295

 35 H s       :     0.442980  s :     0.442980
      pz      :     0.043633  p :     0.096895
      px      :     0.013813
      py      :     0.039448

 36 H s       :     0.654730  s :     0.654730
      pz      :     0.007754  p :     0.118341
      px      :     0.076570
      py      :     0.034018

 37 H s       :     0.679071  s :     0.679071
      pz      :    -0.001936  p :    -0.106647
      px      :    -0.138614
      py      :     0.033903

 38 H s       :     0.442247  s :     0.442247
      pz      :    -0.003574  p :     0.015923
      px      :    -0.000112
      py      :     0.019609

 39 H s       :     0.733583  s :     0.733583
      pz      :     0.061797  p :     0.072124
      px      :    -0.010645
      py      :     0.020973

 40 H s       :     1.600364  s :     1.600364
      pz      :     0.062235  p :     0.062975
      px      :     0.012766
      py      :    -0.012026

 41 H s       :     0.936861  s :     0.936861
      pz      :    -0.033530  p :    -0.036998
      px      :     0.000770
      py      :    -0.004239

 42 H s       :     0.930336  s :     0.930336
      pz      :    -0.052302  p :    -0.036893
      px      :    -0.009223
      py      :     0.024632

 43 H s       :     0.645305  s :     0.645305
      pz      :     0.018053  p :     0.071514
      px      :     0.026565
      py      :     0.026897

 44 H s       :     0.464977  s :     0.464977
      pz      :     0.038861  p :     0.034524
      px      :    -0.018544
      py      :     0.014207



                     *******************************
                     * LOEWDIN POPULATION ANALYSIS *
                     *******************************

----------------------
LOEWDIN ATOMIC CHARGES
----------------------
   0 C :    0.156884
   1 C :   -0.421477
   2 C :    0.180670
   3 C :    0.179889
   4 C :   -0.086926
   5 C :    0.069914
   6 C :    0.075797
   7 C :   -0.106198
   8 C :    0.073494
   9 C :    0.064705
  10 C :   -0.024756
  11 O :   -0.014878
  12 C :    0.113531
  13 C :   -0.089135
  14 O :   -0.214474
  15 C :   -0.116113
  16 C :    0.067164
  17 C :    0.076692
  18 C :   -0.049810
  19 O :   -0.362392
  20 C :    0.259899
  21 C :    0.081430
  22 C :    0.071680
  23 H :   -0.006585
  24 H :   -0.005219
  25 H :   -0.003628
  26 H :   -0.018234
  27 H :   -0.004719
  28 H :   -0.002611
  29 H :   -0.019748
  30 H :   -0.005019
  31 H :   -0.002006
  32 H :    0.000089
  33 H :    0.012681
  34 H :    0.012641
  35 H :    0.007731
  36 H :   -0.060149
  37 H :   -0.002704
  38 H :    0.013113
  39 H :    0.020867
  40 H :    0.013274
  41 H :    0.019911
  42 H :    0.019792
  43 H :    0.010639
  44 H :    0.014296

-------------------------------
LOEWDIN REDUCED ORBITAL CHARGES
-------------------------------
  0 C s       :     2.697014  s :     2.697014
      pz      :     0.899682  p :     2.706325
      px      :     0.897505
      py      :     0.909138
      dz2     :     0.079028  d :     0.439777
      dxz     :     0.094958
      dyz     :     0.113778
      dx2y2   :     0.095493
      dxy     :     0.056520

  1 C s       :     2.654927  s :     2.654927
      pz      :     0.876941  p :     2.622385
      px      :     0.867281
      py      :     0.878163
      dz2     :     0.213487  d :     1.144165
      dxz     :     0.234984
      dyz     :     0.238009
      dx2y2   :     0.249054
      dxy     :     0.208632

  2 C s       :     2.701976  s :     2.701976
      pz      :     0.894371  p :     2.701493
      px      :     0.905910
      py      :     0.901211
      dz2     :     0.084996  d :     0.415861
      dxz     :     0.114422
      dyz     :     0.070214
      dx2y2   :     0.110078
      dxy     :     0.036151

  3 C s       :     2.701138  s :     2.701138
      pz      :     0.907679  p :     2.701332
      px      :     0.909446
      py      :     0.884207
      dz2     :     0.045938  d :     0.417641
      dxz     :     0.082934
      dyz     :     0.112124
      dx2y2   :     0.087984
      dxy     :     0.088661

  4 C s       :     2.686328  s :     2.686328
      pz      :     0.923849  p :     2.560575
      px      :     0.901432
      py      :     0.735294
      dz2     :     0.202525  d :     0.840023
      dxz     :     0.241789
      dyz     :     0.137107
      dx2y2   :     0.130697
      dxy     :     0.127905

  5 C s       :     2.717175  s :     2.717175
      pz      :     0.926139  p :     2.629624
      px      :     0.918226
      py      :     0.785259
      dz2     :     0.126158  d :     0.583287
      dxz     :     0.204541
      dyz     :     0.083064
      dx2y2   :     0.089923
      dxy     :     0.079601

  6 C s       :     2.717068  s :     2.717068
      pz      :     0.915735  p :     2.615982
      px      :     0.936218
      py      :     0.764029
      dz2     :     0.135844  d :     0.591153
      dxz     :     0.152333
      dyz     :     0.049883
      dx2y2   :     0.124397
      dxy     :     0.128696

  7 C s       :     2.683797  s :     2.683797
      pz      :     0.934503  p :     2.634605
      px      :     0.893456
      py      :     0.806645
      dz2     :     0.200243  d :     0.787797
      dxz     :     0.222966
      dyz     :     0.127848
      dx2y2   :     0.117951
      dxy     :     0.118788

  8 C s       :     2.719103  s :     2.719103
      pz      :     0.923204  p :     2.618292
      px      :     0.926567
      py      :     0.768521
      dz2     :     0.126306  d :     0.589111
      dxz     :     0.204064
      dyz     :     0.089795
      dx2y2   :     0.091165
      dxy     :     0.077780

  9 C s       :     2.714794  s :     2.714794
      pz      :     0.911954  p :     2.625596
      px      :     0.934150
      py      :     0.779492
      dz2     :     0.142470  d :     0.594904
      dxz     :     0.155656
      dyz     :     0.052128
      dx2y2   :     0.123610
      dxy     :     0.121041

 10 C s       :     2.664806  s :     2.664806
      pz      :     0.765527  p :     2.431292
      px      :     0.939324
      py      :     0.726441
      dz2     :     0.198700  d :     0.928658
      dxz     :     0.221726
      dyz     :     0.149554
      dx2y2   :     0.175896
      dxy     :     0.182781

 11 O s       :     3.289884  s :     3.289884
      pz      :     1.432941  p :     4.418826
      px      :     1.471049
      py      :     1.514836
      dz2     :     0.074378  d :     0.306168
      dxz     :     0.068645
      dyz     :     0.067252
      dx2y2   :     0.057659
      dxy     :     0.038233

 12 C s       :     2.698160  s :     2.698160
      pz      :     0.890298  p :     2.680319
      px      :     0.903164
      py      :     0.886857
      dz2     :     0.081072  d :     0.507990
      dxz     :     0.128201
      dyz     :     0.061412
      dx2y2   :     0.132030
      dxy     :     0.105274

 13 C s       :     2.676096  s :     2.676096
      pz      :     0.802869  p :     2.423549
      px      :     0.904896
      py      :     0.715784
      dz2     :     0.205688  d :     0.989489
      dxz     :     0.258001
      dyz     :     0.161850
      dx2y2   :     0.167604
      dxy     :     0.196346

 14 O s       :     3.402892  s :     3.402892
      pz      :     1.422340  p :     4.521206
      px      :     1.682450
      py      :     1.416416
      dz2     :     0.066831  d :     0.290376
      dxz     :     0.070272
      dyz     :     0.067248
      dx2y2   :     0.046481
      dxy     :     0.039544

 15 C s       :     2.687988  s :     2.687988
      pz      :     0.932015  p :     2.646493
      px      :     0.895618
      py      :     0.818860
      dz2     :     0.199172  d :     0.781632
      dxz     :     0.225477
      dyz     :     0.134164
      dx2y2   :     0.114323
      dxy     :     0.108497

 16 C s       :     2.718946  s :     2.718946
      pz      :     0.934805  p :     2.615122
      px      :     0.911549
      py      :     0.768767
      dz2     :     0.133400  d :     0.598769
      dxz     :     0.198300
      dyz     :     0.108547
      dx2y2   :     0.087976
      dxy     :     0.070546

 17 C s       :     2.720066  s :     2.720066
      pz      :     0.919305  p :     2.654667
      px      :     0.921159
      py      :     0.814204
      dz2     :     0.134640  d :     0.548575
      dxz     :     0.136004
      dyz     :     0.049724
      dx2y2   :     0.114846
      dxy     :     0.113361

 18 C s       :     2.658052  s :     2.658052
      pz      :     0.926142  p :     2.476095
      px      :     0.810102
      py      :     0.739851
      dz2     :     0.210755  d :     0.915663
      dxz     :     0.268580
      dyz     :     0.151531
      dx2y2   :     0.139228
      dxy     :     0.145569

 19 O s       :     3.301348  s :     3.301348
      pz      :     1.568909  p :     4.514090
      px      :     1.325081
      py      :     1.620101
      dz2     :     0.093304  d :     0.546955
      dxz     :     0.145369
      dyz     :     0.055915
      dx2y2   :     0.123633
      dxy     :     0.128734

 20 C s       :     2.688740  s :     2.688740
      pz      :     0.884133  p :     2.572165
      px      :     0.761783
      py      :     0.926249
      dz2     :     0.053747  d :     0.479195
      dxz     :     0.143781
      dyz     :     0.102591
      dx2y2   :     0.083586
      dxy     :     0.095489

 21 C s       :     2.711700  s :     2.711700
      pz      :     0.917673  p :     2.653634
      px      :     0.915383
      py      :     0.820577
      dz2     :     0.131332  d :     0.553237
      dxz     :     0.177576
      dyz     :     0.093047
      dx2y2   :     0.081401
      dxy     :     0.069881

 22 C s       :     2.718205  s :     2.718205
      pz      :     0.924417  p :     2.609090
      px      :     0.920738
      py      :     0.763935
      dz2     :     0.143996  d :     0.601026
      dxz     :     0.141191
      dyz     :     0.053599
      dx2y2   :     0.128844
      dxy     :     0.133395

 23 H s       :     0.732774  s :     0.732774
      pz      :     0.086314  p :     0.273811
      px      :     0.107604
      py      :     0.079894

 24 H s       :     0.728779  s :     0.728779
      pz      :     0.075764  p :     0.276439
      px      :     0.075173
      py      :     0.125502

[...]
    71a ->  83a  :     0.011388 (c= -0.10671597)
    75a ->  83a  :     0.903322 (c=  0.95043236)
    75a ->  84a  :     0.022813 (c=  0.15103979)

Storing amplitudes in GBW file ... 
... GBW file created

-----------------------------
TD-DFT/TDA-EXCITATION SPECTRA
-----------------------------

Center of mass = (  1.1867,  0.3624, -0.4363)
Generating CIS transition densities           ... done

----------------------------------------------------------------------------------------------------
                     ABSORPTION SPECTRUM VIA TRANSITION ELECTRIC DIPOLE MOMENTS    
----------------------------------------------------------------------------------------------------
     Transition      Energy     Energy  Wavelength fosc(D2)      D2        DX        DY        DZ   
                      (eV)      (cm-1)    (nm)                 (au**2)    (au)      (au)      (au)  
----------------------------------------------------------------------------------------------------
  0-1A  ->  1-1A    3.633074   29302.7   341.3   1.091468740  12.26250   3.48194  -0.33190   0.16857
  0-1A  ->  2-1A    3.922134   31634.1   316.1   0.114182521   1.18828   1.08564   0.07752  -0.06042
  0-1A  ->  3-1A    4.196865   33850.0   295.4   0.183284607   1.78255  -1.06340  -0.52277   0.61518
  0-1A  ->  4-1A    4.402874   35511.6   281.6   0.007465075   0.06921   0.09327  -0.03128   0.24398
  0-1A  ->  5-1A    4.513448   36403.4   274.7   0.014443500   0.13062  -0.13765  -0.13776   0.30446
  0-1A  ->  6-1A    4.965465   40049.2   249.7   0.036237410   0.29788   0.43089  -0.20188   0.26732
  0-1A  ->  7-1A    5.131093   41385.1   241.6   0.071466921   0.56851   0.08604   0.24850  -0.70665
  0-1A  ->  8-1A    5.194270   41894.6   238.7   0.026822464   0.21077  -0.18080   0.32222  -0.27250
  0-1A  ->  9-1A    5.273004   42529.6   235.1   0.011139344   0.08623   0.20042   0.21400   0.01613
  0-1A  -> 10-1A    5.447470   43936.8   227.6   0.045672184   0.34221   0.25030  -0.22453   0.47870
  0-1A  -> 11-1A    5.499260   44354.5   225.5   0.162572118   1.20666   1.08037  -0.19767  -0.01980
  0-1A  -> 12-1A    5.657548   45631.2   219.1   0.007657879   0.05525   0.07251  -0.14477   0.17039
  0-1A  -> 13-1A    5.799604   46777.0   213.8   0.002599463   0.01829  -0.08903   0.03711  -0.09482
  0-1A  -> 14-1A    5.833326   47049.0   212.5   0.002345636   0.01641   0.10115  -0.06605  -0.04266
  0-1A  -> 15-1A    5.974387   48186.7   207.5   0.037252311   0.25451  -0.47367   0.06570  -0.16072
  0-1A  -> 16-1A    5.993174   48338.2   206.9   0.006980027   0.04754   0.19685  -0.05100   0.07865
  0-1A  -> 17-1A    6.011031   48482.2   206.3   0.025048796   0.17009   0.35650   0.11790   0.17059
  0-1A  -> 18-1A    6.066555   48930.1   204.4   0.006600352   0.04441   0.13860   0.15087   0.04935

----------------------------------------------------------------------------------------------------
                     ABSORPTION SPECTRUM VIA TRANSITION VELOCITY DIPOLE MOMENTS    
----------------------------------------------------------------------------------------------------
     Transition      Energy     Energy  Wavelength fosc(P2)      P2        PX        PY        PZ   
                      (eV)      (cm-1)    (nm)                 (au**2)    (au)      (au)      (au)  
----------------------------------------------------------------------------------------------------
  0-1A  ->  1-1A    3.633074   29302.7   341.3   0.590668209   0.11829  -0.34347   0.00698   0.01648
  0-1A  ->  2-1A    3.922134   31634.1   316.1   0.060662349   0.01312  -0.11392  -0.00078   0.01172
  0-1A  ->  3-1A    4.196865   33850.0   295.4   0.070255621   0.01625   0.12232   0.01988  -0.02992
  0-1A  ->  4-1A    4.402874   35511.6   281.6   0.000841900   0.00020   0.00345  -0.00208   0.01371
  0-1A  ->  5-1A    4.513448   36403.4   274.7   0.000786078   0.00020   0.01048   0.00859  -0.00348
  0-1A  ->  6-1A    4.965465   40049.2   249.7   0.006253573   0.00171  -0.03945   0.00584  -0.01100
  0-1A  ->  7-1A    5.131093   41385.1   241.6   0.002076196   0.00059   0.00785  -0.02209   0.00612
  0-1A  ->  8-1A    5.194270   41894.6   238.7   0.011236870   0.00322  -0.01036  -0.04124   0.03754
  0-1A  ->  9-1A    5.273004   42529.6   235.1   0.015660613   0.00455  -0.01487  -0.03970   0.05249
  0-1A  -> 10-1A    5.447470   43936.8   227.6   0.013514519   0.00406  -0.05961   0.01740  -0.01422
  0-1A  -> 11-1A    5.499260   44354.5   225.5   0.097731884   0.02963  -0.17141   0.00876   0.01303
  0-1A  -> 12-1A    5.657548   45631.2   219.1   0.000532435   0.00017  -0.00611   0.01116  -0.00203
  0-1A  -> 13-1A    5.799604   46777.0   213.8   0.001926918   0.00062   0.02193  -0.01161   0.00066
  0-1A  -> 14-1A    5.833326   47049.0   212.5   0.001894157   0.00061  -0.02155   0.01035   0.00612
  0-1A  -> 15-1A    5.974387   48186.7   207.5   0.014671576   0.00483   0.06826  -0.00243  -0.01289
  0-1A  -> 16-1A    5.993174   48338.2   206.9   0.004602130   0.00152  -0.03878   0.00153  -0.00381
  0-1A  -> 17-1A    6.011031   48482.2   206.3   0.009341191   0.00310  -0.05275  -0.01762  -0.00126
  0-1A  -> 18-1A    6.066555   48930.1   204.4   0.002972605   0.00099  -0.02855  -0.01329  -0.00157

------------------------------------------------------------------------------------------
                     CD SPECTRUM VIA TRANSITION ELECTRIC DIPOLE MOMENTS    
------------------------------------------------------------------------------------------
     Transition      Energy     Energy  Wavelength    R        MX        MY        MZ   
                      (eV)      (cm-1)    (nm)   (1e40*cgs)   (au)      (au)      (au)  
------------------------------------------------------------------------------------------
  0-1A  ->  1-1A    3.633074   29302.7   341.3   56.52952  -0.02498   0.27928   0.35459
  0-1A  ->  2-1A    3.922134   31634.1   316.1  -28.56585   0.03462   0.25927  -0.04811
  0-1A  ->  3-1A    4.196865   33850.0   295.4  -22.89966  -0.04616  -0.19281  -0.16469
  0-1A  ->  4-1A    4.402874   35511.6   281.6    0.88198   0.01564  -0.10252  -0.02679
  0-1A  ->  5-1A    4.513448   36403.4   274.7    1.60335   0.04153   0.10645   0.05577
  0-1A  ->  6-1A    4.965465   40049.2   249.7    2.67011  -0.02166  -0.04236  -0.01826
  0-1A  ->  7-1A    5.131093   41385.1   241.6  -15.05226   0.01189   0.10293  -0.00754
  0-1A  ->  8-1A    5.194270   41894.6   238.7  -11.48198  -0.02468   0.09110   0.03472
  0-1A  ->  9-1A    5.273004   42529.6   235.1   -4.45312  -0.01514   0.05906  -0.00981
  0-1A  -> 10-1A    5.447470   43936.8   227.6  -20.67637  -0.04068  -0.11211   0.06030
  0-1A  -> 11-1A    5.499260   44354.5   225.5   41.30565  -0.04101   0.19371   0.25364
  0-1A  -> 12-1A    5.657548   45631.2   219.1    1.29492  -0.02241   0.03782   0.02555
  0-1A  -> 13-1A    5.799604   46777.0   213.8    4.34426   0.01679  -0.07744   0.05110
  0-1A  -> 14-1A    5.833326   47049.0   212.5    3.42375  -0.04242   0.04361   0.00213
  0-1A  -> 15-1A    5.974387   48186.7   207.5   13.82028   0.08529   0.01541  -0.06267
  0-1A  -> 16-1A    5.993174   48338.2   206.9   -8.03006   0.07233   0.13016   0.11994
  0-1A  -> 17-1A    6.011031   48482.2   206.3  -17.25133   0.13251   0.00787  -0.06786
  0-1A  -> 18-1A    6.066555   48930.1   204.4   -6.13120   0.04501  -0.01537   0.18411

------------------------------------------------------------------------------------------
                     CD SPECTRUM VIA TRANSITION VELOCITY DIPOLE MOMENTS    
------------------------------------------------------------------------------------------
     Transition      Energy     Energy  Wavelength    R        MX        MY        MZ   
                      (eV)      (cm-1)    (nm)   (1e40*cgs)   (au)      (au)      (au)  
------------------------------------------------------------------------------------------
  0-1A  ->  1-1A    3.633074   29302.7   341.3   57.81294  -0.02498   0.27928   0.35459
  0-1A  ->  2-1A    3.922134   31634.1   316.1  -15.40297   0.03462   0.25927  -0.04811
  0-1A  ->  3-1A    4.196865   33850.0   295.4  -13.92013  -0.04616  -0.19281  -0.16469
  0-1A  ->  4-1A    4.402874   35511.6   281.6   -0.29153   0.01564  -0.10252  -0.02679
  0-1A  ->  5-1A    4.513448   36403.4   274.7    3.28362   0.04153   0.10645   0.05577
  0-1A  ->  6-1A    4.965465   40049.2   249.7    2.08767  -0.02166  -0.04236  -0.01826
  0-1A  ->  7-1A    5.131093   41385.1   241.6   -5.56757   0.01189   0.10293  -0.00754
  0-1A  ->  8-1A    5.194270   41894.6   238.7   -5.42960  -0.02468   0.09110   0.03472
  0-1A  ->  9-1A    5.273004   42529.6   235.1   -6.40957  -0.01514   0.05906  -0.00981
  0-1A  -> 10-1A    5.447470   43936.8   227.6   -0.90137  -0.04068  -0.11211   0.06030
  0-1A  -> 11-1A    5.499260   44354.5   225.5   28.06420  -0.04101   0.19371   0.25364
  0-1A  -> 12-1A    5.657548   45631.2   219.1    1.15011  -0.02241   0.03782   0.02555
  0-1A  -> 13-1A    5.799604   46777.0   213.8    2.87779   0.01679  -0.07744   0.05110
  0-1A  -> 14-1A    5.833326   47049.0   212.5    3.03212  -0.04242   0.04361   0.00213
  0-1A  -> 15-1A    5.974387   48186.7   207.5   14.15561   0.08529   0.01541  -0.06267
  0-1A  -> 16-1A    5.993174   48338.2   206.9   -6.55579   0.07233   0.13016   0.11994
  0-1A  -> 17-1A    6.011031   48482.2   206.3  -15.03353   0.13251   0.00787  -0.06786
  0-1A  -> 18-1A    6.066555   48930.1   204.4   -2.89486   0.04501  -0.01537   0.18411

Total run time:      628.160 sec

           *** ORCA-CIS/TD-DFT FINISHED WITHOUT ERROR ***
-----------------------
CIS/TD-DFT TOTAL ENERGY
-----------------------

    E(SCF)  =   -999.797022932 Eh
    DE(CIS) =      0.133513004 Eh (Root  1)
    ----------------------------- ---------
    E(tot)  =   -999.663509928 Eh


Maximum memory used throughout the entire CIS-calculation: 1520.8 MB
=> NOW LEAVING ORCA_CIS

-------------------------   --------------------
FINAL SINGLE POINT ENERGY      -999.663509927652
-------------------------   --------------------



           ************************************************************
           *        Program running with 4 parallel MPI-processes     *
           *              working on a common directory               *
           ************************************************************

------------------------------------------------------------------------------
                              ORCA PROPERTY CALCULATIONS
------------------------------------------------------------------------------

GBWName                                 ... td.gbw
Number of atoms                         ...     45
Number of basis functions               ...    645
Max core memory                         ...   2500 MB

Electric properties:
Dipole moment                           ... YES
Quadrupole moment                       ...  NO
Static polarizability (Dipole/Dipole)   ...  NO
Static polarizability (Dipole/Quad.)    ...  NO
Static polarizability (Quad./Quad.)     ...  NO
Static polarizability (Velocity)        ...  NO
Static hyperpolarizability              ...  NO

Atomic electric properties:
Dipole moment                           ...  NO
Quadrupole moment                       ...  NO
Static polarizability                   ...  NO

Choice of electric origin               ... Center of mass
Position of electric origin             ...     1.186671     0.362361    -0.436308

General magnetic properties:
Magnetizability                         ...  NO

EPR properties:
g-Tensor (aka g-matrix)                 ...  NO
Zero-Field splitting spin-orbit         ...  NO
Zero-field splitting spin-spin          ...  NO
Hyperfine couplings                     ...  NO (   0 nuclei)
Quadrupole couplings                    ...  NO (   0 nuclei)
Contact density                         ...  NO (   0 nuclei)

NMR properties:
Chemical shifts                         ...  NO (   0 nuclei)
Spin-rotation constants                 ...  NO (   0 nuclei)
Spin-spin couplings                     ...  NO (   0 nuclei,    0 pairs)

Choice of magnetic origin               ... GIAO
Position of magnetic origin             ...     0.000000     0.000000     0.000000

Properties with geometric perturbations:
SCF Hessian                             ...  NO
IR spectrum                             ...  NO
VCD spectrum                            ...  NO
X-ray spectroscopy properties:
SCF XES/XAS/RIXS spectra                ...  NO

SCF SOC stabilization energy            ...  NO
Diagonal Born-Oppenheimer correction    ...  NO

-------------
DIPOLE MOMENT
-------------

Method             : SCF
Type of density    : Electron Density
Multiplicity       :   1
Irrep              :   0
Energy             :  -999.7970229315410506 Eh
Basis              : AO
                                X                 Y                 Z
Electronic contribution:     26.041115914       7.539294680      -8.357914773
Nuclear contribution   :    -26.114003618      -8.922769997       9.626825510
                        -----------------------------------------
Total Dipole Moment    :     -0.072887704      -1.383475317       1.268910738
                        -----------------------------------------
Magnitude (a.u.)       :      1.878683324
Magnitude (Debye)      :      4.775233515



--------------------
Rotational spectrum 
--------------------
 
Rotational constants in cm-1:             0.022457             0.002653             0.002439 
Rotational constants in MHz :           673.255172            79.523278            73.128143 

Dipole components along the rotational axes: 
x,y,z [a.u.] :    -0.082212    -1.821009    -0.454552 
x,y,z [Debye]:    -0.208967    -4.628638    -1.155379 

 

Dipole moment calculation done in   0.1 sec 

Maximum memory used throughout the entire PROP-calculation: 46.0 MB

--------------------------------
SUGGESTED CITATIONS FOR THIS RUN
--------------------------------

Below you find a list of papers that are relevant to this ORCA run
We neither can nor want to force you to cite these papers, but we appreciate if you do
You receive ORCA, which is the product of decades of hard work by many enthusiastic individuals, for free
The only thing we kindly ask in return is that you cite our papers,
We deeply appreciate it, if you show your appreciation for ORCA by not just citing the generic ORCA reference.

Please note that relegating all ORCA citations to the supporting information does *not* help us.
SI sections are not indexed - citations you put there will not count into any citation statistics
But we need these citations in order to attract the funding resources that allow us to do what we are doing

Therefore, if you are a happy ORCA user, please consider citing a few of the papers listed below in the main body of your paper

In addition to the list printed below, the program has created the file td.bibtex that contains the list in bibtex format
You can import this file easily into all common literature databanks and citation aid programs

It goes without saying that in many instances, there are alternative algorithms to achieve similar
results as the ones you have gotten from ORCA. It is, of course, also the case that in some instances
ORCA just re-implements algorithms worked out by others. We are fully aware of that and we are also
fully appreciative of our colleagues work. Hence this citation list should not be read as indicating
that the listed papers, which are focused on our own work, are the only ones worth citing. It simply
meant to make it easier for users to cite ORCA specific papers. It is not a substitute for doing your
own literature research and citing the relevant literature in a scientifically appropriate manner.

List of essential papers. We consider these as the minimum necessary citations

  1. Neese, F.
     Software update: the ORCA program system, version 6.0
     WIRES Comput. Molec. Sci. 2025 15(1), e70019
     doi.org/10.1002/wcms.70019

List of papers to cite with high priority. The work reported in these papers was absolutely
necessary for this run to complete.
Our perspective: the developers of density functionals and basis sets usually get cited in chemistry papers
Good! But without the algorithms to do something with them, the functionals or basis sets would not do anything.
Hence, in our opinion, the algorithm design and method developments papers are equally worthy of getting cited

  1. Neese, F.; Olbrich, G.
     Efficient use of the resolution of the identity approximation in time-dependent density functional calculations with hybrid density functionals
     Chem. Phys. Lett. 2002 362 , 170-178
     doi.org/10.1016/s0009-2614(02)01053-9
  2. Neese, F.
     An improvement of the resolution of the identity approximation for the formation of the Coulomb matrix
     J. Comp. Chem. 2003 24(14), 1740-1747
     doi.org/10.1002/jcc.10318
  3. Neese, F.; Wennmohs, F.; Hansen, A.; Becker, U.
     Efficient, approximate and parallel Hartree-Fock and hybrid DFT calculations. A 'chain-of-spheres' algorithm for the Hartree-Fock exchange
     Chem. Phys. 2009 356(1-3), 98-109
     doi.org/10.1016/j.chemphys.2008.10.036
  4. Garcia-Rates, M.; Neese, F.
     Effect of the Solute Cavity on the Solvation Energy and its Derivatives within the Framework of the Gaussian Charge Scheme
     J. Comput. Chem. 2020 41 , 922-939
     doi.org/10.1002/jcc.26139
  5. Helmich-Paris, B.; de Souza, B.; Neese, F.; Izsák, R.
     An improved chain of spheres for exchange algorithm
     J. Chem. Phys. 2021 155(10), 104109
     doi.org/10.1063/5.0058766
  6. Neese, F.
     The SHARK Integral Generation and Digestion System
     J. Comp. Chem. 2022 44(3), 381
     doi.org/10.1002/jcc.26942

List of suggested additional citations. These are papers that are important in the 'surrounding' of 
of this run, or papers that preceded the highly important papers. If you like your results we are grateful for a citation.

  1. Izsak, R.; Neese, F.
     An overlap fitted chain of spheres exchange method
     J. Chem. Phys. 2011 135 , 144105
     doi.org/10.1063/1.3646921
  2. Izsak, R.; Hansen, A.; Neese, F.
     The resolution of identity and chain of spheres approximations for the LPNO-CCSD singles Fock term
     Molec. Phys. 2012 110 , 2413-2417
     doi.org/10.1080/00268976.2012.687466
  3. Neese, F.
     The ORCA program system
     WIRES Comput. Molec. Sci. 2012 2(1), 73-78
     doi.org/10.1002/wcms.81
  4. Izsak, R.; Neese, F.; Klopper, W.
     Robust fitting techniques in the chain of spheres approximation to the Fock exchange: The role of the complementary space
     J. Chem. Phys. 2013 139 , 
     doi.org/10.1063/1.4819264
  5. Neese, F.
     Software update: the ORCA program system, version 4.0
     WIRES Comput. Molec. Sci. 2018 8(1), 1-6
     doi.org/10.1002/wcms.1327
  6. Neese, F.; Wennmohs, F.; Becker, U.; Riplinger, C.
     The ORCA quantum chemistry program package
     J. Chem. Phys. 2020 152(22), 224108
     doi.org/10.1063/5.0004608
  7. Neese, F.
     Software update: The ORCA program system—Version 5.0
     WIRES Comput. Molec. Sci. 2022 12(1), e1606
     doi.org/10.1002/wcms.1606

List of optional additional citations

  1. Neese, F.
     Approximate second-order SCF convergence for spin unrestricted wavefunctions
     Chem. Phys. Lett. 2000 325(1-3), 93-98
     doi.org/10.1016/s0009-2614(00)00662-x

Timings for individual modules:

Sum of individual times          ...     1049.305 sec (=  17.488 min)
Startup calculation              ...        6.908 sec (=   0.115 min)   0.7 %
SCF iterations                   ...      412.943 sec (=   6.882 min)  39.4 %
Property integrals               ...        0.597 sec (=   0.010 min)   0.1 %
Property calculations            ...        0.414 sec (=   0.007 min)   0.0 %
CIS module                       ...      628.443 sec (=  10.474 min)  59.9 %
                             ****ORCA TERMINATED NORMALLY****
TOTAL RUN TIME: 0 days 0 hours 17 minutes 30 seconds 306 msec
