
                                 *****************
                                 * O   R   C   A *
                                 *****************

                                            #,                                       
                                            ###                                      
                                            ####                                     
                                            #####                                    
                                            ######                                   
                                           ########,                                 
                                     ,,################,,,,,                         
                               ,,#################################,,                 
                          ,,##########################################,,             
                       ,#########################################, ''#####,          
                    ,#############################################,,   '####,        
                  ,##################################################,,,,####,       
                ,###########''''           ''''###############################       
              ,#####''   ,,,,##########,,,,          '''####'''          '####       
            ,##' ,,,,###########################,,,                        '##       
           ' ,,###''''                  '''############,,,                           
         ,,##''                                '''############,,,,        ,,,,,,###''
      ,#''                                            '''#######################'''  
     '                                                          ''''####''''         
             ,#######,   #######,   ,#######,      ##                                
            ,#'     '#,  ##    ##  ,#'     '#,    #''#        ,####,    ,#,          
            ##       ##  ##   ,#'  ##            #'  '#       #'       ,# #          
            ##       ##  #######   ##           ,######,      #####,      #          
            '#,     ,#'  ##    ##  '#,     ,#' ,#      #,     #,   #      #          
             '#######'   ##     ##  '#######'  #'      '#     '####' #    #          



                #########################################################
                #                        -***-                          #
                #          Department of theory and spectroscopy        #
                #                                                       #
                #                      Frank Neese                      #
                #                                                       #
                #     Directorship, Architecture, Infrastructure        #
                #                    SHARK, DRIVERS                     #
                #        Core code/Algorithms in most modules           #
                #                                                       #
                #        Max Planck Institute fuer Kohlenforschung      #
                #                Kaiser Wilhelm Platz 1                 #
                #                 D-45470 Muelheim/Ruhr                 #
                #                      Germany                          #
                #                                                       #
                #                  All rights reserved                  #
                #                        -***-                          #
                #########################################################


                         Program Version 6.1.1  -  RELEASE   -


 With contributions from (in alphabetic order):
[Max-Planck-Institut fuer Kohlenforschung]                               
  Daniel Aravena         : Magnetic Suceptibility                        
  Michael Atanasov       : Ab Initio Ligand Field Theory (pilot matlab implementation)
  Alexander A. Auer      : GIAO ZORA, VPT2 properties, NMR spectrum      
  Ute Becker             : All parallelization in ORCA, NUMFREQ, NUMCALC 
  Giovanni Bistoni       : ED, misc. LED, open-shell LED, HFLD           
  Dmytro Bykov           : pre 5.0 version of the SCF Hessian            
  Marcos Casanova-Páez   : Triplet and SCS-CIS(D). UHF-(DLPNO)-IP/EA/STEOM-CCSD. UHF-CVS-IP/STEOM-CCSD   
  Vijay G. Chilkuri      : MRCI spin determinant printing, contributions to CSF-ICE 
  Pauline Colinet        : FMM embedding                                 
  Dipayan Datta          : RHF DLPNO-CCSD density                        
  Achintya Kumar Dutta   : EOM-CC, STEOM-CC                              
  Nicolas Foglia         : Exact transition moments, OPA infrastructure, MCD improvements    
  Dmitry Ganyushin       : Spin-Orbit,Spin-Spin,Magnetic field MRCI      
  Miquel Garcia-Rates    : C-PCM and meta-GGA Hessian, CCSD/C-PCM, Gaussian charge scheme 
  Tiago L. C. Gouveia    : GS-ROHF, GS-ROCIS                             
  Yang Guo               : DLPNO-NEVPT2, F12-NEVPT2, CIM, IAO-localization        
  Andreas Hansen         : Spin unrestricted coupled pair/coupled cluster methods 
  Ingolf Harden          : AUTO-CI MPn and infrastructure                
  Benjamin Helmich-Paris : MC-RPA, TRAH-(SCF,CASSCF), AVAS, COSX integrals, SCF dyn. polar., MC-PDFT, srDFT 
  Lee Huntington         : MR-EOM, pCC                                   
  Robert Izsak           : Overlap fitted RIJCOSX, COSX-SCS-MP3, EOM     
  Riya Kayal             : Wick's Theorem for AUTO-CI, AUTO-CI UHF-CCSDT 
  Emily Kempfer          : AUTO-CI RHF CISDT and CCSDT, approximate NEVPT4
  Christian Kollmar      : KDIIS, OOCD, Brueckner-CCSD(T), CCSD density, CASPT2, CASPT2-K, improved NEVPT2 
  Axel Koslowski         : Symmetry handling                             
  Simone Kossmann        : meta-GGA functionals, TD-DFT gradient, OOMP2, (MP2 Hessian; deprecated post 5.0) 
  Lucas Lang             : DCDCAS, Hyperfine gauge corrections, ICE-SOC+SSC
  Marvin Lechner         : AUTO-CI (C++ implementation), FIC-MRCC        
  Spencer Leger          : CASSCF response                               
  Dagmar Lenk            : GEPOL surface, SMD, ORCA-2-JSON               
  Dimitrios Liakos       : Extrapolation schemes; Compound Job, Property file
  Dimitrios Manganas     : Further ROCIS development; embedding schemes. LFT, Crystal Embedding 
  Dimitrios Pantazis     : SARC Basis sets                               
  Anastasios Papadopoulos: AUTO-CI, single reference methods and gradients 
  Taras Petrenko         : pre 6.0 DFT Hessian and TD-DFT gradient,  ECA, NRVS 
  Petra Pikulova         : Analytic Raman intensities                    
  Peter Pinski           : DLPNO-MP2, DLPNO-MP2 Gradient                 
  Shashank Vittal Rao    : ES-AILFT, MagRelax                            
  Christoph Reimann      : Effective Core Potentials                     
  Marius Retegan         : Local ZFS, SOC                                
  Christoph Riplinger    : Optimizer, TS searches, QM/MM, DLPNO-CCSD(T), (RO)-DLPNO pert. Triples 
  Michael Roemelt        : Original ROCIS implementation, recursive CI coupling coefficients
  Masaaki Saitow         : Open-shell DLPNO-CCSD energy and density      
  Barbara Sandhoefer     : DKH picture change effects                    
  Yorick L. A. Schmerwitz: GMF and freeze-and-release deltaSCF, NEB S-IDPP initial path                    
  Kantharuban Sivalingam : CASSCF convergence/infrastructure, NEVPT2, NEVPT3, NEVPT4(SD), FIC-MRCI and CEPA variants
  Bernardo de Souza      : ESD, SOC TD-DFT                               
  Georgi L. Stoychev     : AutoAux, RI-MP2 NMR, DLPNO-MP2 response, X2C  
  Van Anh Tran           : RI-MP2 g-tensors                              
  Willem Van den Heuvel  : Paramagnetic NMR                              
  Zikuan Wang            : NOTCH, Electric field optimization            
  Frank Wennmohs         : Technical directorship and infrastructure     
  Hang Xu                : AUTO-CI-Response properties                   
                                                                         
[FACCTs GmbH]                                                            
  Markus Bursch, Nicolas Foglia, Miquel Garcia-Rates, Ingolf Harden, Hagen Neugebauer, Anastasios Papadopoulos, 
  Christoph Riplinger, Bernardo de Souza, Georgi L. Stoychev                                                    
                                                                 
  APM, various basis sets, CI-OPT, improved COSX, DLPNO-Multilevel,           
  DOCKER, DRACO, updates on ESD, Fragmentator, GOAT, IRC, LR-CPCM, L-BFGS, MBIS, meta-GGA TD-DFT gradient, ML-optimized integration grids, 
  MM, NACMEs, nearIR, NEB, NEB-TS, NL-DFT gradient (VV10), 2- and 3-layer-ONIOM, interface openCOSMO-RS, QMMM,   
  Crystal-QMMM, RESP, rigid body optimization, SF, symmetry and pop. for TD-DFT, various functionals, SOLVATOR                                   
                                                                         
[Other institutions]                                                     
  V. Asgeirsson          : NEB                                           
  Christoph Bannwarth    : sTDA-DFT, sTD-DFT, PBEh-3c, B97-3c, D3        
  Giovanni Bistoni       : ETS/NOCV, ADLD/ADEX, COVALED                  
  Martin Brehm           : Molecular dynamics                            
  Ronald Cardenas        : ETS/NOCV                                      
  Martina Colucci        : COVALED                                       
  Sebastian Ehlert       : rSCAN, r2SCAN, r2SCAN-3c, D4, dhf basis sets  
  Marvin Friede          : D4 for Fr, Ra, Ac-Lr                          
  Lars Goerigk           : TD-DFT with DH, B97 family of functionals     
  Stefan Grimme          : VdW corrections, initial TS optimization, DFT functionals, gCP, sTDA/sTD-DF 
  Waldemar Hujo          : DFT-NL                                        
  H. Jonsson             : NEB                                           
  Holger Kruse           : gCP                                           
  Marcel Mueller         : wB97X-3c, vDZP basis set                      
  Hagen Neugebauer       : wr2SCAN, Native XTB                           
  Gianluca Regni         : ADLD/ADEX                                     
  Tobias Risthaus        : pre 6.0 range-separated hybrid DFT and stability analysis
  Lukas Wittmann         : regularized MP2, r2SCAN double-hybrids, wr2SCAN        
                                                                         
We gratefully acknowledge several colleagues who have allowed us to      
interface, adapt or use parts of their codes:                            
  Ed Valeev, F. Pavosevic, A. Kumar             : LibInt (2-el integral package), F12 methods 
  Garnet Chan, S. Sharma, J. Yang, R. Olivares  : DMRG                   
  Ulf Ekstrom                                   : XCFun DFT Library      
  Mihaly Kallay                                 : mrcc  (arbitrary order and MRCC methods)
  Frank Weinhold                                : gennbo (NPA and NBO analysis)           
  Simon Mueller                                 : openCOSMO-RS                            
  Christopher J. Cramer and Donald G. Truhlar   : smd solvation model                     
  S Lehtola, MJT Oliveira, MAL Marques          : LibXC Library                           
  Liviu Ungur et al                             : ANISO software                          


 Your calculation uses the libint2 library for the computation of 2-el integrals
 For citations please refer to: http://libint.valeyev.net

 Your ORCA version has been built with support for libXC version: 7.0.0
 For citations please refer to: https://libxc.gitlab.io

 This ORCA versions uses:
   CBLAS   interface :  Fast vector & matrix operations
   LAPACKE interface :  Fast linear algebra routines
   Shared memory     :  Shared parallel matrices


  ***********************************
  * Starting time: Thu Jul 23 10:22:45 2026
  * Host name:     DESKTOP-19Q153E
  * Process ID:    12120
  * Working dir.:  C:\Users\ysm04\Documents\etc\uv_vis\molecules\dhhb\calculations\01_dft_opt\dhhb\dhhb_c000
  ***********************************

NOTE: MaxCore=2500 MB was set to SCF,MP2,MDCI,CIPSI,MRCI,RASCI and CIS
      => If you want to overwrite this, your respective input block should be placed after the MaxCore statement
================================================================================

----- Orbital basis set information -----
Your calculation utilizes the basis: def2-SVP
   F. Weigend and R. Ahlrichs, Phys. Chem. Chem. Phys. 7, 3297 (2005).

----- AuxJ basis set information -----
Your calculation utilizes the auxiliary basis: def2/J
   H-Rn: F. Weigend, Phys. Chem. Chem. Phys. 8, 1057 (2006).
   Fr-Lr: K. Eichkorn, F. Weigend, O. Treutler, R. Ahlrichs; Theor. Chem. Acc. 97, 119 (1997).

================================================================================
                                        WARNINGS
                       Please study these warnings very carefully!
================================================================================


WARNING: Geometry Optimization
  ===> : Switching off AutoStart
         For restart on a previous wavefunction, please use MOREAD

================================================================================
                                       INPUT FILE
================================================================================
NAME = opt.inp
|  1> # geometry optimization: dhhb / dhhb_c000
|  2> ! B3LYP def2-SVP RIJCOSX def2/J TightSCF Opt CPCM(Ethanol)
|  3> %pal nprocs 4 end
|  4> %maxcore 2500
|  5> %scf
|  6>   MaxIter 300
|  7> end
|  8> * xyz 0 1
|  9> C      9.5165794973     2.6674720054     1.4613557628
| 10> C      8.9621239532     1.8614241604     0.2921292241
| 11> C      7.4976253174     1.4811543284     0.5039402180
| 12> C      6.9472845019     0.6636423995    -0.6629690564
| 13> C      5.4828719442     0.2839261698    -0.4553922904
| 14> C      4.9642630372    -0.5518294285    -1.6230623902
| 15> O      3.5722936945    -0.8541802844    -1.4850983182
| 16> C      3.2334163407    -1.9289962070    -0.7728003657
| 17> O      4.0426269305    -2.6573855688    -0.2342641542
| 18> C      1.7692055006    -2.1494146840    -0.7340816840
| 19> C      1.2840443134    -3.2921918383    -0.0995960159
| 20> C     -0.0717920271    -3.5477653287    -0.0743526738
| 21> C     -0.9651634805    -2.6545586877    -0.6606609470
| 22> C     -0.4786950671    -1.5134778973    -1.2971570089
| 23> C      0.8784484338    -1.2620939822    -1.3362540945
| 24> C     -2.4181993303    -2.9915150988    -0.6903574164
| 25> O     -2.7509335076    -4.1309013263    -1.0684955524
| 26> C     -3.3706425016    -1.9841534468    -0.3126387966
| 27> C     -3.0019034053    -0.7846348739     0.3267804881
| 28> C     -3.9142878411     0.1752415583     0.6544571879
| 29> C     -5.2915914165     0.0222317551     0.3476230173
| 30> C     -5.6708861222    -1.1875625318    -0.2549499007
| 31> C     -4.7568683543    -2.1792683227    -0.5565446118
| 32> O     -5.2255921687    -3.3086254328    -1.1160773683
| 33> N     -6.1926056154     0.9879195910     0.6348107429
| 34> C     -5.8040467774     2.2864618863     1.1486096838
| 35> C     -5.7387287705     2.3071311631     2.6767375899
| 36> C     -7.6154908893     0.8003416336     0.4321751308
| 37> C     -8.0462310989     1.1482579337    -0.9935851152
| 38> H      9.4546540645     2.0933314226     2.3833895807
| 39> H     10.5585612607     2.9256495178     1.2868213506
| 40> H      8.9513450244     3.5876965328     1.5925368354
| 41> H      9.5546464803     0.9523756595     0.1656384344
| 42> H      9.0530008847     2.4459280655    -0.6262310485
| 43> H      6.9027930631     2.3895346654     0.6228230621
| 44> H      7.4053875087     0.9017823762     1.4254278720
| 45> H      7.5402387941    -0.2465095309    -0.7767343553
| 46> H      7.0429788430     1.2402704425    -1.5854961294
| 47> H      5.3767038243    -0.2947292650     0.4651027393
| 48> H      4.8712632080     1.1839098106    -0.3637220532
| 49> H      5.5254682301    -1.4894437478    -1.6946171362
| 50> H      5.0380249116     0.0007260001    -2.5617756894
| 51> H      1.9884751930    -3.9721537327     0.3555424897
| 52> H     -0.4551588476    -4.4399488806     0.3982744561
| 53> H     -1.1679243102    -0.8372355627    -1.7798794240
| 54> H      1.2587166068    -0.3844238601    -1.8340690535
| 55> H     -1.9658624359    -0.6375434225     0.5916892935
| 56> H     -3.5648199100     1.0514336758     1.1720433290
| 57> H     -6.6941980154    -1.4011857149    -0.5114162977
| 58> H     -4.4620795571    -3.9229792342    -1.2425227344
| 59> H     -4.8425330616     2.5790845969     0.7241438912
| 60> H     -6.5447809031     3.0134003881     0.8084888669
| 61> H     -6.7102215266     2.0680034517     3.1022545695
| 62> H     -5.0198136803     1.5775712346     3.0404393482
| 63> H     -5.4426795868     3.2941053758     3.0215396140
| 64> H     -8.1400914474     1.4482270193     1.1374518127
| 65> H     -7.8880339063    -0.2295984427     0.6688574969
| 66> H     -7.8024310724     2.1827610959    -1.2230931229
| 67> H     -9.1190179721     1.0123819800    -1.0999400673
| 68> H     -7.5397367552     0.5106004724    -1.7132492151
| 69> *
| 70> 
| 71>                          ****END OF INPUT****
================================================================================

                       *****************************
                       * Geometry Optimization Run *
                       *****************************

Geometry optimization settings:
Update method            Update   .... BFGS
Choice of coordinates    CoordSys .... (2022) Redundant Internals
Initial Hessian          InHess   .... Almloef's Model
Max. no of cycles        MaxIter  .... 180

Convergence Tolerances:
Energy Change            TolE     ....  5.0000e-06 Eh
Max. Gradient            TolMAXG  ....  3.0000e-04 Eh/bohr
RMS Gradient             TolRMSG  ....  1.0000e-04 Eh/bohr
Max. Displacement        TolMAXD  ....  4.0000e-03 bohr
RMS Displacement         TolRMSD  ....  2.0000e-03 bohr
Strict Convergence                .... False

------------------------------------------------------------------------------
                        ORCA OPTIMIZATION COORDINATE SETUP
------------------------------------------------------------------------------

The optimization will be done in redundant internal coordinates (2022)
Making redundant internal coordinates   ...  (2022 redundants) done
Evaluating the initial hessian          ...  (Almloef) done
Evaluating the coordinates              ...  done
Calculating the B-matrix                .... done
Calculating the G-matrix                .... done
The number of degrees of freedom        ....  295

    -----------------------------------------------------------------
                    Redundant Internal Coordinates


    -----------------------------------------------------------------
         Definition                    Initial Value    Approx d2E/dq
    -----------------------------------------------------------------
      1. B(C   1,C   0)                  1.5245         0.381142   
      2. B(C   2,C   1)                  1.5278         0.376582   
      3. B(C   3,C   2)                  1.5274         0.377193   
      4. B(C   4,C   3)                  1.5270         0.377693   
      5. B(C   5,C   4)                  1.5267         0.378093   
      6. B(O   6,C   5)                  1.4311         0.481186   
      7. B(C   7,O   6)                  1.3332         0.689427   
      8. B(O   8,C   7)                  1.2147         1.065669   
      9. B(C   9,C   7)                  1.4812         0.446901   
     10. B(C  10,C   9)                  1.3942         0.615150   
     11. B(C  11,C  10)                  1.3799         0.648308   
     12. B(C  12,C  11)                  1.3927         0.618569   
     13. B(C  13,C  12)                  1.3942         0.615189   
     14. B(C  14,C  13)                  1.3808         0.646315   
     15. B(C  14,C   9)                  1.3941         0.615551   
     16. B(C  15,C  12)                  1.4919         0.429715   
     17. B(O  16,C  15)                  1.2458         0.950631   
     18. B(C  17,C  15)                  1.4369         0.525968   
     19. B(C  18,C  17)                  1.4084         0.583898   
     20. B(C  19,C  18)                  1.3643         0.686783   
     21. B(C  20,C  19)                  1.4193         0.560957   
     22. B(C  21,C  20)                  1.4038         0.593984   
     23. B(C  22,C  21)                  1.3820         0.643479   
     24. B(C  22,C  17)                  1.4210         0.557588   
     25. B(O  23,C  22)                  1.3447         0.660912   
     26. B(N  24,C  20)                  1.3516         0.644348   
     27. B(C  25,N  24)                  1.4495         0.449651   
     28. B(C  26,C  25)                  1.5297         0.374038   
     29. B(C  27,N  24)                  1.4494         0.449840   
     30. B(C  28,C  27)                  1.5295         0.374259   
     31. B(H  29,C   0)                  1.0879         0.362832   
     32. B(H  30,C  14)                 10.8684         0.010000   
     33. B(H  30,C   0)                  1.0876         0.363307   
     34. B(H  31,C   0)                  1.0879         0.362898   
     35. B(H  32,C   1)                  1.0925         0.356870   
     36. B(H  33,C   1)                  1.0924         0.356968   
     37. B(H  34,C   2)                  1.0923         0.357074   
     38. B(H  35,C   2)                  1.0924         0.356950   
     39. B(H  36,C   3)                  1.0922         0.357194   
     40. B(H  37,C   3)                  1.0921         0.357314   
     41. B(H  38,C   4)                  1.0924         0.356887   
     42. B(H  39,C   4)                  1.0920         0.357479   
     43. B(H  40,C   5)                  1.0951         0.353447   
     44. B(H  41,C   5)                  1.0918         0.357779   
     45. B(H  42,C  10)                  1.0797         0.374006   
     46. B(H  43,C  11)                  1.0800         0.373614   
     47. B(H  44,C  13)                  1.0795         0.374235   
     48. B(H  45,C  14)                  1.0783         0.375917   
     49. B(H  46,C  18)                  1.0794         0.374342   
     50. B(H  47,C  19)                  1.0760         0.379131   
     51. B(H  48,C  21)                  1.0764         0.378587   
     52. B(H  49,O  16)                  1.7325         0.030444   
     53. B(H  49,O  23)                  0.9881         0.468934   
     54. B(H  50,C  25)                  1.0910         0.358763   
     55. B(H  51,C  25)                  1.0922         0.357257   
     56. B(H  52,C  26)                  1.0872         0.363798   
     57. B(H  53,C  26)                  1.0869         0.364210   
     58. B(H  54,C  26)                  1.0866         0.364656   
     59. B(H  55,C  27)                  1.0920         0.357517   
     60. B(H  56,C  27)                  1.0914         0.358300   
     61. B(H  57,C  28)                  1.0873         0.363636   
     62. B(H  58,C  28)                  1.0866         0.364659   
     63. B(H  58,H  30)                 19.9139         0.010000   
     64. B(H  58,C  14)                 10.2557         0.010000   
     65. B(H  59,C  28)                  1.0868         0.364404   
     66. A(C   1,C   0,H  29)          110.5033         0.325794   
     67. A(H  30,C   0,H  31)          108.4413         0.291600   
     68. A(C   1,C   0,H  30)          110.5405         0.325864   
     69. A(C   1,C   0,H  31)          110.5330         0.325804   
     70. A(H  29,C   0,H  31)          108.3383         0.291540   
     71. A(H  29,C   0,H  30)          108.4100         0.291591   
     72. A(C   0,C   1,C   2)          111.9554         0.365100   
     73. A(C   2,C   1,H  33)          109.2369         0.324281   
     74. A(C   0,C   1,H  32)          109.3597         0.324908   
     75. A(C   2,C   1,H  32)          109.1984         0.324266   
     76. A(H  32,C   1,H  33)          107.6248         0.290030   
     77. A(C   0,C   1,H  33)          109.3662         0.324923   
     78. A(C   3,C   2,H  35)          109.2791         0.324364   
     79. A(C   1,C   2,C   3)          111.8814         0.364450   
     80. A(C   3,C   2,H  34)          109.3933         0.324383   
     81. A(C   1,C   2,H  34)          109.2749         0.324296   
     82. A(H  34,C   2,H  35)          107.6545         0.290054   
     83. A(C   1,C   2,H  35)          109.2622         0.324278   
     84. A(C   2,C   3,H  36)          109.2680         0.324401   
     85. A(H  36,C   3,H  37)          107.7237         0.290116   
     86. A(C   4,C   3,H  36)          109.1220         0.324471   
     87. A(C   4,C   3,H  37)          109.2780         0.324489   
     88. A(C   2,C   3,C   4)          112.0111         0.364634   
     89. A(C   2,C   3,H  37)          109.3408         0.324419   
     90. A(C   3,C   4,H  38)          109.8438         0.324425   
     91. A(C   3,C   4,H  39)          110.0960         0.324514   
     92. A(C   3,C   4,C   5)          110.9724         0.364783   
     93. A(H  38,C   4,H  39)          108.1429         0.290098   
     94. A(C   5,C   4,H  38)          108.7516         0.324482   
     95. A(C   5,C   4,H  39)          108.9725         0.324570   
     96. A(O   6,C   5,H  41)          104.8052         0.335783   
     97. A(C   4,C   5,O   6)          111.8589         0.377924   
     98. A(C   4,C   5,H  41)          110.9528         0.324615   
     99. A(H  40,C   5,H  41)          110.0313         0.289695   
    100. A(O   6,C   5,H  40)          108.8975         0.335103   
    101. A(C   4,C   5,H  40)          110.1571         0.323966   
    102. A(C   5,O   6,C   7)          117.9737         0.417280   
    103. A(O   6,C   7,O   8)          123.4347         0.482007   
    104. A(O   8,C   7,C   9)          123.8990         0.448232   
    105. A(O   6,C   7,C   9)          112.6561         0.414512   
    106. A(C  10,C   9,C  14)          119.7313         0.432892   
    107. A(C   7,C   9,C  14)          121.7102         0.408900   
    108. A(C   7,C   9,C  10)          118.5450         0.408852   
    109. A(C  11,C  10,H  42)          121.1106         0.357885   
    110. A(C   9,C  10,C  11)          120.1340         0.436952   
    111. A(C   9,C  10,H  42)          118.7505         0.354709   
    112. A(C  10,C  11,C  12)          120.2496         0.437388   
    113. A(C  10,C  11,H  43)          120.6495         0.357822   
    114. A(C  12,C  11,H  43)          119.1009         0.354980   
    115. A(C  13,C  12,C  15)          121.0373         0.406030   
    116. A(C  11,C  12,C  13)          119.5555         0.433278   
    117. A(C  11,C  12,C  15)          119.2274         0.406424   
    118. A(C  14,C  13,H  44)          120.0543         0.357735   
    119. A(C  12,C  13,H  44)          119.6081         0.354750   
    120. A(C  12,C  13,C  14)          120.3231         0.436714   
    121. A(C  13,C  14,H  45)          120.5224         0.358008   
    122. A(C   9,C  14,H  45)          119.4826         0.355055   
    123. A(C   9,C  14,C  13)          119.9944         0.436761   
    124. A(C  12,C  15,C  17)          118.8173         0.394984   
    125. A(O  16,C  15,C  17)          122.9541         0.452211   
    126. A(C  12,C  15,O  16)          118.2133         0.435969   
    127. A(C  18,C  17,C  22)          116.7614         0.421335   
    128. A(C  15,C  17,C  22)          120.3486         0.413568   
    129. A(C  15,C  17,C  18)          122.8807         0.416972   
    130. A(C  17,C  18,C  19)          122.2206         0.437386   
    131. A(C  19,C  18,H  46)          119.1482         0.361472   
    132. A(C  17,C  18,H  46)          118.6040         0.351645   
    133. A(C  18,C  19,C  20)          121.4128         0.434240   
    134. A(C  20,C  19,H  47)          120.4608         0.350023   
    135. A(C  18,C  19,H  47)          118.1171         0.362257   
    136. A(C  19,C  20,C  21)          116.6090         0.423081   
    137. A(C  21,C  20,N  24)          121.7917         0.430890   
    138. A(C  19,C  20,N  24)          121.5957         0.426492   
    139. A(C  20,C  21,C  22)          122.2364         0.433621   
    140. A(C  22,C  21,H  48)          115.7447         0.358171   
    141. A(C  20,C  21,H  48)          122.0189         0.353339   
    142. A(C  17,C  22,O  23)          121.7887         0.427974   
    143. A(C  17,C  22,C  21)          120.6115         0.428724   
    144. A(C  21,C  22,O  23)          117.5775         0.439146   
    145. A(C  22,O  23,H  49)          107.8233         0.367622   
    146. A(C  25,N  24,C  27)          115.3809         0.382502   
    147. A(C  20,N  24,C  27)          122.1572         0.407402   
    148. A(C  20,N  24,C  25)          122.4569         0.407371   
    149. A(H  50,C  25,H  51)          107.3402         0.290308   
    150. A(C  26,C  25,H  51)          109.3341         0.323963   
    151. A(N  24,C  25,H  51)          107.7024         0.331945   
    152. A(C  26,C  25,H  50)          110.3290         0.324187   
    153. A(N  24,C  25,H  50)          109.7920         0.332177   
    154. A(N  24,C  25,C  26)          112.1882         0.372831   
    155. A(H  53,C  26,H  54)          108.8624         0.291935   
    156. A(H  52,C  26,H  54)          108.6052         0.291883   
    157. A(C  25,C  26,H  54)          109.9328         0.325055   
    158. A(H  52,C  26,H  53)          108.2057         0.291827   
    159. A(C  25,C  26,H  53)          110.6990         0.324990   
    160. A(C  25,C  26,H  52)          110.4788         0.324930   
    161. A(H  55,C  27,H  56)          107.4507         0.290282   
    162. A(C  28,C  27,H  56)          110.2733         0.324150   
    163. A(N  24,C  27,H  56)          109.6921         0.332129   
    164. A(C  28,C  27,H  55)          109.3789         0.324033   
    165. A(N  24,C  27,H  55)          107.7306         0.332009   
    166. A(N  24,C  27,C  28)          112.1694         0.372896   
    167. A(H  58,C  28,H  59)          108.7810         0.291960   
    168. A(H  57,C  28,H  59)          108.2983         0.291831   
    169. A(C  27,C  28,H  59)          110.6447         0.325050   
    170. A(H  57,C  28,H  58)          108.6439         0.291863   
    171. A(C  27,C  28,H  58)          109.9283         0.325088   
    172. A(C  27,C  28,H  57)          110.4891         0.324938   
    173. D(H  32,C   1,C   0,H  30)     58.8506         0.011574   
    174. D(C   2,C   1,C   0,H  29)     59.9998         0.011574   
    175. D(C   2,C   1,C   0,H  31)    -59.9178         0.011574   
    176. D(H  32,C   1,C   0,H  31)    178.9210         0.011574   
    177. D(H  32,C   1,C   0,H  29)    -61.1613         0.011574   
    178. D(C   2,C   1,C   0,H  30)   -179.9882         0.011574   
    179. D(C   3,C   2,C   1,H  32)    -58.2638         0.011314   
    180. D(H  34,C   2,C   1,H  33)    -62.1073         0.011314   
    181. D(H  34,C   2,C   1,H  32)   -179.5643         0.011314   
    182. D(C   3,C   2,C   1,C   0)   -179.5180         0.011314   
    183. D(H  34,C   2,C   1,C   0)     59.1814         0.011314   
    184. D(C   3,C   2,C   1,H  33)     59.1932         0.011314   
    185. D(C   4,C   3,C   2,H  35)     58.9578         0.011348   
    186. D(C   4,C   3,C   2,C   1)   -179.9039         0.011348   
    187. D(C   4,C   3,C   2,H  34)    -58.6718         0.011348   
    188. D(H  36,C   3,C   2,H  35)    -62.0808         0.011348   
    189. D(H  36,C   3,C   2,H  34)   -179.7104         0.011348   
    190. D(H  36,C   3,C   2,C   1)     59.0575         0.011348   
    191. D(H  38,C   4,C   3,H  37)    179.9318         0.011377   
    192. D(H  38,C   4,C   3,H  36)     62.3759         0.011377   
    193. D(H  38,C   4,C   3,C   2)    -58.7469         0.011377   
    194. D(C   5,C   4,C   3,H  37)     59.6444         0.011377   
    195. D(C   5,C   4,C   3,H  36)    -57.9114         0.011377   
    196. D(C   5,C   4,C   3,C   2)   -179.0343         0.011377   
    197. D(H  40,C   5,C   4,H  39)   -176.5533         0.011400   
    198. D(H  40,C   5,C   4,C   3)     62.0549         0.011400   
    199. D(O   6,C   5,C   4,H  39)    -55.2886         0.011400   
    200. D(O   6,C   5,C   4,H  38)     62.3858         0.011400   
    201. D(O   6,C   5,C   4,C   3)   -176.6805         0.011400   
    202. D(H  40,C   5,C   4,H  38)    -58.8789         0.011400   
    203. D(C   7,O   6,C   5,C   4)    -86.1103         0.018267   
    204. D(C   7,O   6,C   5,H  41)    153.5874         0.018267   
    205. D(C   7,O   6,C   5,H  40)     35.8798         0.018267   
    206. D(C   9,C   7,O   6,C   5)   -178.6053         0.035492   
    207. D(O   8,C   7,O   6,C   5)      0.2720         0.035492   
    208. D(C  14,C   9,C   7,O   8)    178.1083         0.013618   
    209. D(C  14,C   9,C   7,O   6)     -3.0205         0.013618   
    210. D(C  10,C   9,C   7,O   8)     -3.2331         0.013618   
    211. D(C  10,C   9,C   7,O   6)    175.6381         0.013618   
    212. D(H  42,C  10,C   9,C  14)    179.5741         0.026160   
    213. D(H  42,C  10,C   9,C   7)      0.8883         0.026160   
    214. D(C  11,C  10,C   9,C  14)      0.3656         0.026160   
    215. D(C  11,C  10,C   9,C   7)   -178.3202         0.026160   
    216. D(H  43,C  11,C  10,H  42)     -0.3674         0.029254   
    217. D(H  43,C  11,C  10,C   9)    178.8221         0.029254   
    218. D(C  12,C  11,C  10,H  42)    179.6425         0.029254   
    219. D(C  12,C  11,C  10,C   9)     -1.1680         0.029254   
    220. D(C  15,C  12,C  11,H  43)     -3.5242         0.026469   
    221. D(C  15,C  12,C  11,C  10)    176.4661         0.026469   
    222. D(C  13,C  12,C  11,H  43)   -178.7024         0.026469   
    223. D(C  13,C  12,C  11,C  10)      1.2878         0.026469   
    224. D(H  44,C  13,C  12,C  15)      2.9171         0.026164   
    225. D(H  44,C  13,C  12,C  11)    178.0059         0.026164   
    226. D(C  14,C  13,C  12,C  15)   -175.6979         0.026164   
    227. D(C  14,C  13,C  12,C  11)     -0.6091         0.026164   
    228. D(H  45,C  14,C  13,C  12)    179.5371         0.033973   
    229. D(C   9,C  14,C  13,H  44)   -178.7944         0.033973   
    230. D(C   9,C  14,C  13,C  12)     -0.1856         0.033973   
    231. D(H  45,C  14,C   9,C  10)   -179.4142         0.030597   
    232. D(H  45,C  14,C   9,C   7)     -0.7713         0.030597   
    233. D(C  13,C  14,C   9,C  10)      0.3113         0.030597   
    234. D(H  45,C  14,C  13,H  44)      0.9283         0.033973   
    235. D(C  13,C  14,C   9,C   7)    178.9543         0.030597   
    236. D(C  17,C  15,C  12,C  13)    -51.1394         0.012617   
    237. D(C  17,C  15,C  12,C  11)    133.7559         0.012617   
    238. D(O  16,C  15,C  12,C  13)    127.4799         0.012617   
    239. D(O  16,C  15,C  12,C  11)    -47.6247         0.012617   
    240. D(C  22,C  17,C  15,O  16)    -10.0113         0.018876   
    241. D(C  22,C  17,C  15,C  12)    168.5387         0.018876   
    242. D(C  18,C  17,C  15,O  16)    168.8455         0.018876   
    243. D(C  18,C  17,C  15,C  12)    -12.6045         0.018876   
    244. D(H  46,C  18,C  17,C  22)    175.5830         0.023438   
    245. D(H  46,C  18,C  17,C  15)     -3.3121         0.023438   
    246. D(C  19,C  18,C  17,C  22)     -2.5036         0.023438   
    247. D(C  19,C  18,C  17,C  15)    178.6013         0.023438   
    248. D(H  47,C  19,C  18,H  46)     -0.1379         0.033115   
    249. D(H  47,C  19,C  18,C  17)    177.9386         0.033115   
    250. D(C  20,C  19,C  18,H  46)   -179.0273         0.033115   
    251. D(C  20,C  19,C  18,C  17)     -0.9507         0.033115   
    252. D(N  24,C  20,C  19,H  47)      3.1308         0.021558   
    253. D(N  24,C  20,C  19,C  18)   -178.0056         0.021558   
    254. D(C  21,C  20,C  19,H  47)   -176.1935         0.021558   
    255. D(C  21,C  20,C  19,C  18)      2.6701         0.021558   
    256. D(H  48,C  21,C  20,N  24)     -0.2211         0.024297   
    257. D(H  48,C  21,C  20,C  19)    179.1017         0.024297   
    258. D(C  22,C  21,C  20,N  24)    179.7851         0.024297   
    259. D(C  22,C  21,C  20,C  19)     -0.8921         0.024297   
    260. D(O  23,C  22,C  21,C  20)    179.0892         0.028790   
    261. D(C  17,C  22,C  21,H  48)    177.4092         0.028790   
    262. D(C  17,C  22,C  21,C  20)     -2.5967         0.028790   
    263. D(O  23,C  22,C  17,C  18)   -177.5311         0.021290   
    264. D(O  23,C  22,C  17,C  15)      1.3937         0.021290   
    265. D(C  21,C  22,C  17,C  18)      4.2270         0.021290   
    266. D(O  23,C  22,C  21,H  48)     -0.9050         0.028790   
    267. D(C  21,C  22,C  17,C  15)   -176.8482         0.021290   
    268. D(H  49,O  23,C  22,C  21)   -178.2199         0.032372   
    269. D(H  49,O  23,C  22,C  17)      3.4871         0.032372   
    270. D(C  27,N  24,C  20,C  21)      4.6603         0.033832   
    271. D(C  27,N  24,C  20,C  19)   -174.6289         0.033832   
    272. D(C  25,N  24,C  20,C  21)   -174.4927         0.033832   
    273. D(C  25,N  24,C  20,C  19)      6.2181         0.033832   
    274. D(H  51,C  25,N  24,C  20)    150.3110         0.017248   
    275. D(H  50,C  25,N  24,C  27)   -145.4700         0.017248   
    276. D(H  50,C  25,N  24,C  20)     33.7363         0.017248   
    277. D(C  26,C  25,N  24,C  27)     91.4697         0.017248   
    278. D(C  26,C  25,N  24,C  20)    -89.3240         0.017248   
    279. D(H  53,C  26,C  25,H  51)    178.9711         0.011170   
    280. D(H  53,C  26,C  25,H  50)    -63.2003         0.011170   
    281. D(H  53,C  26,C  25,N  24)     59.5570         0.011170   
    282. D(H  52,C  26,C  25,H  51)     59.1277         0.011170   
    283. D(H  52,C  26,C  25,H  50)    176.9563         0.011170   
    284. D(H  52,C  26,C  25,N  24)    -60.2865         0.011170   
    285. D(H  56,C  27,N  24,C  20)     36.4617         0.017262   
    286. D(H  55,C  27,N  24,C  25)    -27.6609         0.017262   
    287. D(H  55,C  27,N  24,C  20)    153.1301         0.017262   
    288. D(C  28,C  27,N  24,C  25)     92.7667         0.017262   
    289. D(C  28,C  27,N  24,C  20)    -86.4422         0.017262   
    290. D(H  58,C  28,C  27,H  56)     58.4494         0.011182   
    291. D(H  58,C  28,C  27,H  55)    -59.5080         0.011182   
    292. D(H  58,C  28,C  27,N  24)   -178.9753         0.011182   
    293. D(H  57,C  28,C  27,H  56)    178.3493         0.011182   
    294. D(H  57,C  28,C  27,H  55)     60.3919         0.011182   
    295. D(H  57,C  28,C  27,N  24)    -59.0754         0.011182   
    -----------------------------------------------------------------

Number of atoms                         .... 60
Number of degrees of freedom            .... 295


         *************************************************************
         *                GEOMETRY OPTIMIZATION CYCLE   1            *
         *************************************************************
---------------------------------
CARTESIAN COORDINATES (ANGSTROEM)
---------------------------------
  C      9.516579    2.667472    1.461356
  C      8.962124    1.861424    0.292129
  C      7.497625    1.481154    0.503940
  C      6.947285    0.663642   -0.662969
  C      5.482872    0.283926   -0.455392
  C      4.964263   -0.551829   -1.623062
  O      3.572294   -0.854180   -1.485098
  C      3.233416   -1.928996   -0.772800
  O      4.042627   -2.657386   -0.234264
  C      1.769206   -2.149415   -0.734082
  C      1.284044   -3.292192   -0.099596
  C     -0.071792   -3.547765   -0.074353
  C     -0.965163   -2.654559   -0.660661
  C     -0.478695   -1.513478   -1.297157
  C      0.878448   -1.262094   -1.336254
  C     -2.418199   -2.991515   -0.690357
  O     -2.750934   -4.130901   -1.068496
  C     -3.370643   -1.984153   -0.312639
  C     -3.001903   -0.784635    0.326780
  C     -3.914288    0.175242    0.654457
  C     -5.291591    0.022232    0.347623
  C     -5.670886   -1.187563   -0.254950
  C     -4.756868   -2.179268   -0.556545
  O     -5.225592   -3.308625   -1.116077
  N     -6.192606    0.987920    0.634811
  C     -5.804047    2.286462    1.148610
  C     -5.738729    2.307131    2.676738
  C     -7.615491    0.800342    0.432175
  C     -8.046231    1.148258   -0.993585
  H      9.454654    2.093331    2.383390
  H     10.558561    2.925650    1.286821
  H      8.951345    3.587697    1.592537
  H      9.554646    0.952376    0.165638
  H      9.053001    2.445928   -0.626231
  H      6.902793    2.389535    0.622823
  H      7.405388    0.901782    1.425428
  H      7.540239   -0.246510   -0.776734
  H      7.042979    1.240270   -1.585496
  H      5.376704   -0.294729    0.465103
  H      4.871263    1.183910   -0.363722
  H      5.525468   -1.489444   -1.694617
  H      5.038025    0.000726   -2.561776
  H      1.988475   -3.972154    0.355542
  H     -0.455159   -4.439949    0.398274
  H     -1.167924   -0.837236   -1.779879
  H      1.258717   -0.384424   -1.834069
  H     -1.965862   -0.637543    0.591689
  H     -3.564820    1.051434    1.172043
  H     -6.694198   -1.401186   -0.511416
  H     -4.462080   -3.922979   -1.242523
  H     -4.842533    2.579085    0.724144
  H     -6.544781    3.013400    0.808489
  H     -6.710222    2.068003    3.102255
  H     -5.019814    1.577571    3.040439
  H     -5.442680    3.294105    3.021540
  H     -8.140091    1.448227    1.137452
  H     -7.888034   -0.229598    0.668857
  H     -7.802431    2.182761   -1.223093
  H     -9.119018    1.012382   -1.099940
  H     -7.539737    0.510600   -1.713249

----------------------------
CARTESIAN COORDINATES (A.U.)
----------------------------
  NO LB      ZA    FRAG     MASS         X           Y           Z
   0 C     6.0000    0    12.011   17.983729    5.040792    2.761562
   1 C     6.0000    0    12.011   16.935960    3.517582    0.552044
   2 C     6.0000    0    12.011   14.168459    2.798976    0.952309
   3 C     6.0000    0    12.011   13.128465    1.254102   -1.252830
   4 C     6.0000    0    12.011   10.361126    0.536543   -0.860567
   5 C     6.0000    0    12.011    9.381098   -1.042806   -3.067143
   6 O     8.0000    0    15.999    6.750657   -1.614167   -2.806429
   7 C     6.0000    0    12.011    6.110271   -3.645275   -1.460381
   8 O     8.0000    0    15.999    7.639458   -5.021731   -0.442695
   9 C     6.0000    0    12.011    3.343314   -4.061805   -1.387213
  10 C     6.0000    0    12.011    2.426492   -6.221341   -0.188209
  11 C     6.0000    0    12.011   -0.135667   -6.704305   -0.140506
  12 C     6.0000    0    12.011   -1.823895   -5.016389   -1.248468
  13 C     6.0000    0    12.011   -0.904603   -2.860059   -2.451271
  14 C     6.0000    0    12.011    1.660027   -2.385012   -2.525154
  15 C     6.0000    0    12.011   -4.569734   -5.653144   -1.304586
  16 O     8.0000    0    15.999   -5.198511   -7.806272   -2.019164
  17 C     6.0000    0    12.011   -6.369591   -3.749507   -0.590802
  18 C     6.0000    0    12.011   -5.672775   -1.482745    0.617526
  19 C     6.0000    0    12.011   -7.396932    0.331159    1.236745
  20 C     6.0000    0    12.011   -9.999659    0.042012    0.656912
  21 C     6.0000    0    12.011  -10.716422   -2.244168   -0.481785
  22 C     6.0000    0    12.011   -8.989178   -4.118220   -1.051717
  23 O     8.0000    0    15.999   -9.874938   -6.252396   -2.109081
  24 N     7.0000    0    14.007  -11.702329    1.866897    1.199618
  25 C     6.0000    0    12.011  -10.968059    4.320787    2.170558
  26 C     6.0000    0    12.011  -10.844626    4.359846    5.058301
  27 C     6.0000    0    12.011  -14.391192    1.512427    0.816693
  28 C     6.0000    0    12.011  -15.205173    2.169893   -1.877604
  29 H     1.0000    0     1.008   17.866707    3.955823    4.503954
  30 H     1.0000    0     1.008   19.952789    5.528676    2.431740
  31 H     1.0000    0     1.008   16.915591    6.779764    3.009458
  32 H     1.0000    0     1.008   18.055665    1.799729    0.313011
  33 H     1.0000    0     1.008   17.107692    4.622134   -1.183405
  34 H     1.0000    0     1.008   13.044388    4.515566    1.176965
  35 H     1.0000    0     1.008   13.994154    1.704122    2.693668
  36 H     1.0000    0     1.008   14.248986   -0.465836   -1.467815
  37 H     1.0000    0     1.008   13.309301    2.343771   -2.996153
  38 H     1.0000    0     1.008   10.160498   -0.556958    0.878917
  39 H     1.0000    0     1.008    9.205353    2.237265   -0.687335
  40 H     1.0000    0     1.008   10.441622   -2.814641   -3.202362
  41 H     1.0000    0     1.008    9.520487    0.001372   -4.841054
  42 H     1.0000    0     1.008    3.757674   -7.506283    0.671878
  43 H     1.0000    0     1.008   -0.860126   -8.390287    0.752630
  44 H     1.0000    0     1.008   -2.207057   -1.582146   -3.363485
  45 H     1.0000    0     1.008    2.378630   -0.726456   -3.465888
  46 H     1.0000    0     1.008   -3.714942   -1.204782    1.118131
  47 H     1.0000    0     1.008   -6.736533    1.986922    2.214841
  48 H     1.0000    0     1.008  -12.650201   -2.647857   -0.966437
  49 H     1.0000    0     1.008   -8.432108   -7.413356   -2.348028
  50 H     1.0000    0     1.008   -9.151061    4.873764    1.368434
  51 H     1.0000    0     1.008  -12.367844    5.694501    1.527823
  52 H     1.0000    0     1.008  -12.680481    3.907960    5.862412
  53 H     1.0000    0     1.008   -9.486073    2.981178    5.745598
  54 H     1.0000    0     1.008  -10.285174    6.224957    5.709882
  55 H     1.0000    0     1.008  -15.382544    2.736752    2.149472
  56 H     1.0000    0     1.008  -14.906224   -0.433878    1.263957
  57 H     1.0000    0     1.008  -14.744458    4.124821   -2.311311
  58 H     1.0000    0     1.008  -17.232447    1.913125   -2.078585
  59 H     1.0000    0     1.008  -14.248038    0.964895   -3.237572

--------------------------------
INTERNAL COORDINATES (ANGSTROEM)
--------------------------------
 C      0   0   0     0.000000000000     0.00000000     0.00000000
 C      1   0   0     1.524540841569     0.00000000     0.00000000
 C      2   1   0     1.527817167244   111.95540876     0.00000000
 C      3   2   1     1.527376188691   111.88142604   180.48196004
 C      4   3   2     1.527015608313   112.01113155   180.09607963
 C      5   4   3     1.526727244951   110.97236031   180.96568810
 O      6   5   4     1.431093559570   111.85889700   183.31952168
 C      7   6   5     1.333204973561   117.97367375   273.88973410
 O      8   7   6     1.214658014473   123.43465785     0.27204677
 C      8   7   6     1.481214645344   112.65608843   181.39473171
 C     10   8   7     1.394235656186   118.54495367   175.63809261
 C     11  10   8     1.379944642925   120.13403625   181.67982361
 C     12  11  10     1.392726839154   120.24962172   358.83198500
 C     13  12  11     1.394218104986   119.55548045     1.28784969
 C     14  13  12     1.380782726177   120.32308538   359.39086223
 C     13  12  11     1.491889635355   119.22742659   176.46605624
 O     16  13  12     1.245753369675   118.21327290   312.37526269
 C     16  13  12     1.436870505028   118.81732186   133.75594213
 C     18  16  13     1.408428326014   122.88073432   347.39550593
 C     19  18  16     1.364250762644   122.22064489   178.60129355
 C     20  19  18     1.419339405122   121.41276923   359.04927382
 C     21  20  19     1.403766651511   116.60899085     2.67011827
 C     22  21  20     1.381979820947   122.23640663   359.10793019
 O     23  22  21     1.344703090617   117.57748761   179.08921280
 N     21  20  19     1.351612508362   121.59573715   181.99435907
 C     25  21  20     1.449544554314   122.45689987     6.21812567
 C     26  25  21     1.529662890453   112.18823567   270.67603317
 C     25  21  20     1.449430641347   122.15723742   185.37110922
 C     28  25  21     1.529501604810   112.16942555   273.55775110
 H      1   2   3     1.087942337349   110.50325952    59.99979989
 H      1   2   3     1.087586265180   110.54049380   180.01175929
 H      1   2   3     1.087893222698   110.53304485   300.08217137
 H      2   1   3     1.092452306505   109.35970790   238.83886127
 H      2   1   3     1.092377692031   109.36619924   121.21409072
 H      3   2   1     1.092297293792   109.27488569    59.18142653
 H      3   2   1     1.092391490641   109.26220988   301.63001066
 H      4   3   2     1.092205966054   109.26796765    59.05748363
 H      4   3   2     1.092114237299   109.34075479   301.38118581
 H      5   4   3     1.092439875512   109.84376784   301.25306833
 H      5   4   3     1.091988659416   110.09600386    60.23561377
 H      6   5   4     1.095076235688   110.15708652    62.05486950
 H      6   5   4     1.091760492913   110.95278794   299.96298535
 H     11  10   8     1.079686112372   118.75048298     0.88832050
 H     12  11  10     1.079971302053   120.64946158   178.82207418
 H     14  13  12     1.079519140492   119.60811043   178.00585087
 H     15  14  13     1.078298873239   120.52240834   179.53710807
 H     19  18  16     1.079441272385   118.60398377   356.68791434
 H     20  19  18     1.075981354437   118.11706742   177.93864916
 H     22  21  20     1.076372197668   122.01885454   179.10174160
 H     24  23  22     0.988114635037   107.82332098   181.78011989
 H     26  25  21     1.091012321433   109.79204322    33.73627991
 H     26  25  21     1.092157864260   107.70241514   150.31103633
 H     27  26  25     1.087218900425   110.47879619   299.71353341
 H     27  26  25     1.086911019900   110.69895087    59.55700170
 H     27  26  25     1.086577954648   109.93280845   179.86527469
 H     28  25  21     1.091959896972   107.73055330   153.13012104
 H     28  25  21     1.091363733733   109.69211550    36.46172305
 H     29  28  25     1.087340411795   110.48909203   300.92459964
 H     29  28  25     1.086575043860   109.92833184   181.02469417
 H     29  28  25     1.086765832568   110.64474146    60.85533966

---------------------------
INTERNAL COORDINATES (A.U.)
---------------------------
 C      0   0   0     0.000000000000     0.00000000     0.00000000
 C      1   0   0     2.880964670544     0.00000000     0.00000000
 C      2   1   0     2.887156028795   111.95540876     0.00000000
 C      3   2   1     2.886322700098   111.88142604   180.48196004
 C      4   3   2     2.885641301934   112.01113155   180.09607963
 C      5   4   3     2.885096374154   110.97236031   180.96568810
 O      6   5   4     2.704374899606   111.85889700   183.31952168
 C      7   6   5     2.519392280413   117.97367375   273.88973410
 O      8   7   6     2.295370993727   123.43465785     0.27204677
 C      8   7   6     2.799090025254   112.65608843   181.39473171
 C     10   8   7     2.634723556339   118.54495367   175.63809261
 C     11  10   8     2.607717455099   120.13403625   181.67982361
 C     12  11  10     2.631872305362   120.24962172   358.83198500
 C     13  12  11     2.634690389378   119.55548045     1.28784969
 C     14  13  12     2.609301202924   120.32308538   359.39086223
 C     13  12  11     2.819262832857   119.22742659   176.46605624
 O     16  13  12     2.354132699096   118.21327290   312.37526269
 C     16  13  12     2.715291744412   118.81732186   133.75594213
 C     18  16  13     2.661543815424   122.88073432   347.39550593
 C     19  18  16     2.578060319390   122.22064489   178.60129355
 C     20  19  18     2.682162766764   121.41276923   359.04927382
 C     21  20  19     2.652734527288   116.60899085     2.67011827
 C     22  21  20     2.611563384196   122.23640663   359.10793019
 O     23  22  21     2.541120572704   117.57748761   179.08921280
 N     21  20  19     2.554177479986   121.59573715   181.99435907
 C     25  21  20     2.739242226570   122.45689987     6.21812567
 C     26  25  21     2.890643940179   112.18823567   270.67603317
 C     25  21  20     2.739026962259   122.15723742   185.37110922
 C     28  25  21     2.890339154483   112.16942555   273.55775110
 H      1   2   3     2.055913067088   110.50325952    59.99979989
 H      1   2   3     2.055240188205   110.54049380   180.01175929
 H      1   2   3     2.055820253848   110.53304485   300.08217137
 H      2   1   3     2.064435673665   109.35970790   238.83886127
 H      2   1   3     2.064294672743   109.36619924   121.21409072
 H      3   2   1     2.064142742090   109.27488569    59.18142653
 H      3   2   1     2.064320748337   109.26220988   301.63001066
 H      4   3   2     2.063970157676   109.26796765    59.05748363
 H      4   3   2     2.063796815451   109.34075479   301.38118581
 H      5   4   3     2.064412182493   109.84376784   301.25306833
 H      5   4   3     2.063559507643   110.09600386    60.23561377
 H      6   5   4     2.069394181216   110.15708652    62.05486950
 H      6   5   4     2.063128335440   110.95278794   299.96298535
 H     11  10   8     2.040311062982   118.75048298     0.88832050
 H     12  11  10     2.040849993375   120.64946158   178.82207418
 H     14  13  12     2.039995531857   119.60811043   178.00585087
 H     15  14  13     2.037689560937   120.52240834   179.53710807
 H     19  18  16     2.039848382460   118.60398377   356.68791434
 H     20  19  18     2.033310085091   118.11706742   177.93864916
 H     22  21  20     2.034048671759   122.01885454   179.10174160
 H     24  23  22     1.867266049140   107.82332098   181.78011989
 H     26  25  21     2.061714496241   109.79204322    33.73627991
 H     26  25  21     2.063879258459   107.70241514   150.31103633
 H     27  26  25     2.054545969427   110.47879619   299.71353341
 H     27  26  25     2.053964159553   110.69895087    59.55700170
 H     27  26  25     2.053334757442   109.93280845   179.86527469
 H     28  25  21     2.063505154501   107.73055330   153.13012104
 H     28  25  21     2.062378569249   109.69211550    36.46172305
 H     29  28  25     2.054775592637   110.48909203   300.92459964
 H     29  28  25     2.053329256850   109.92833184   181.02469417
 H     29  28  25     2.053689795256   110.64474146    60.85533966

---------------------
BASIS SET INFORMATION
---------------------
There are 4 groups of distinct atoms

 Group   1 Type C   : 7s4p1d contracted to 3s2p1d pattern {511/31/1}
 Group   2 Type O   : 7s4p1d contracted to 3s2p1d pattern {511/31/1}
 Group   3 Type N   : 7s4p1d contracted to 3s2p1d pattern {511/31/1}
 Group   4 Type H   : 4s1p contracted to 2s1p pattern {31/1}

Atom   0C    basis set group =>   1
Atom   1C    basis set group =>   1
Atom   2C    basis set group =>   1
Atom   3C    basis set group =>   1
Atom   4C    basis set group =>   1
Atom   5C    basis set group =>   1
Atom   6O    basis set group =>   2
Atom   7C    basis set group =>   1
Atom   8O    basis set group =>   2
Atom   9C    basis set group =>   1
Atom  10C    basis set group =>   1
Atom  11C    basis set group =>   1
Atom  12C    basis set group =>   1
Atom  13C    basis set group =>   1
Atom  14C    basis set group =>   1
Atom  15C    basis set group =>   1
Atom  16O    basis set group =>   2
Atom  17C    basis set group =>   1
Atom  18C    basis set group =>   1
Atom  19C    basis set group =>   1
Atom  20C    basis set group =>   1
Atom  21C    basis set group =>   1
Atom  22C    basis set group =>   1
Atom  23O    basis set group =>   2
Atom  24N    basis set group =>   3
Atom  25C    basis set group =>   1
Atom  26C    basis set group =>   1
Atom  27C    basis set group =>   1
Atom  28C    basis set group =>   1
Atom  29H    basis set group =>   4
Atom  30H    basis set group =>   4
Atom  31H    basis set group =>   4
Atom  32H    basis set group =>   4
Atom  33H    basis set group =>   4
Atom  34H    basis set group =>   4
Atom  35H    basis set group =>   4
Atom  36H    basis set group =>   4
Atom  37H    basis set group =>   4
Atom  38H    basis set group =>   4
Atom  39H    basis set group =>   4
Atom  40H    basis set group =>   4
Atom  41H    basis set group =>   4
Atom  42H    basis set group =>   4
Atom  43H    basis set group =>   4
Atom  44H    basis set group =>   4
Atom  45H    basis set group =>   4
Atom  46H    basis set group =>   4
Atom  47H    basis set group =>   4
Atom  48H    basis set group =>   4
Atom  49H    basis set group =>   4
Atom  50H    basis set group =>   4
Atom  51H    basis set group =>   4
Atom  52H    basis set group =>   4
Atom  53H    basis set group =>   4
Atom  54H    basis set group =>   4
Atom  55H    basis set group =>   4
Atom  56H    basis set group =>   4
Atom  57H    basis set group =>   4
Atom  58H    basis set group =>   4
Atom  59H    basis set group =>   4
---------------------------------
AUXILIARY/J BASIS SET INFORMATION
---------------------------------
There are 4 groups of distinct atoms

 Group   1 Type C   : 12s5p4d2f1g contracted to 6s4p3d1f1g pattern {711111/2111/211/2/1}
 Group   2 Type O   : 12s5p4d2f1g contracted to 6s4p3d1f1g pattern {711111/2111/211/2/1}
 Group   3 Type N   : 12s5p4d2f1g contracted to 6s4p3d1f1g pattern {711111/2111/211/2/1}
 Group   4 Type H   : 5s2p1d contracted to 3s1p1d pattern {311/2/1}

Atom   0C    basis set group =>   1
Atom   1C    basis set group =>   1
Atom   2C    basis set group =>   1
Atom   3C    basis set group =>   1
Atom   4C    basis set group =>   1
Atom   5C    basis set group =>   1
Atom   6O    basis set group =>   2
Atom   7C    basis set group =>   1
Atom   8O    basis set group =>   2
Atom   9C    basis set group =>   1
Atom  10C    basis set group =>   1
Atom  11C    basis set group =>   1
Atom  12C    basis set group =>   1
Atom  13C    basis set group =>   1
Atom  14C    basis set group =>   1
Atom  15C    basis set group =>   1
Atom  16O    basis set group =>   2
Atom  17C    basis set group =>   1
Atom  18C    basis set group =>   1
Atom  19C    basis set group =>   1
Atom  20C    basis set group =>   1
Atom  21C    basis set group =>   1
Atom  22C    basis set group =>   1
Atom  23O    basis set group =>   2
Atom  24N    basis set group =>   3
Atom  25C    basis set group =>   1
Atom  26C    basis set group =>   1
Atom  27C    basis set group =>   1
Atom  28C    basis set group =>   1
Atom  29H    basis set group =>   4
Atom  30H    basis set group =>   4
Atom  31H    basis set group =>   4
Atom  32H    basis set group =>   4
Atom  33H    basis set group =>   4
Atom  34H    basis set group =>   4
Atom  35H    basis set group =>   4
Atom  36H    basis set group =>   4
Atom  37H    basis set group =>   4
Atom  38H    basis set group =>   4
Atom  39H    basis set group =>   4
Atom  40H    basis set group =>   4
Atom  41H    basis set group =>   4
Atom  42H    basis set group =>   4
Atom  43H    basis set group =>   4
Atom  44H    basis set group =>   4
Atom  45H    basis set group =>   4
Atom  46H    basis set group =>   4
Atom  47H    basis set group =>   4
Atom  48H    basis set group =>   4
Atom  49H    basis set group =>   4
Atom  50H    basis set group =>   4
Atom  51H    basis set group =>   4
Atom  52H    basis set group =>   4
Atom  53H    basis set group =>   4
Atom  54H    basis set group =>   4
Atom  55H    basis set group =>   4
Atom  56H    basis set group =>   4
Atom  57H    basis set group =>   4
Atom  58H    basis set group =>   4
Atom  59H    basis set group =>   4


           ************************************************************
           *        Program running with 4 parallel MPI-processes     *
           *              working on a common directory               *
           ************************************************************
------------------------------------------------------------------------------
                             ORCA STARTUP CALCULATIONS
                           -- RI-GTO INTEGRALS CHOSEN --
------------------------------------------------------------------------------
------------------------------------------------------------------------------
                   ___                                                        
                  /   \      - P O W E R E D   B Y -                         
                 /     \                                                     
                 |  |  |   _    _      __       _____    __    __             
                 |  |  |  | |  | |    /  \     |  _  \  |  |  /  |          
                  \  \/   | |  | |   /    \    | | | |  |  | /  /          
                 / \  \   | |__| |  /  /\  \   | |_| |  |  |/  /          
                |  |  |   |  __  | /  /__\  \  |    /   |      \           
                |  |  |   | |  | | |   __   |  |    \   |  |\   \          
                \     /   | |  | | |  |  |  |  | |\  \  |  | \   \       
                 \___/    |_|  |_| |__|  |__|  |_| \__\ |__|  \__/        
                                                                              
                      - O R C A' S   B I G   F R I E N D -                    
                                      &                                       
                       - I N T E G R A L  F E E D E R -                       
                                                                              
 v1 FN, 2020, v2 2021, v3 2022-2024                                           
------------------------------------------------------------------------------


----------------------
SHARK INTEGRAL PACKAGE
----------------------

Number of atoms                             ...     60
Number of basis functions                   ...    561
Number of shells                            ...    267
Maximum angular momentum                    ...      2
Integral batch strategy                     ... SHARK/LIBINT Hybrid
RI-J (if used) integral strategy            ... SPLIT-RIJ (Revised 2003 algorithm where possible)
Printlevel                                  ...      1
Contraction scheme used                     ... SEGMENTED contraction
Prescreening option                         ... SCHWARTZ
   Thresh                                   ... 2.500e-11
   Tcut                                     ... 2.500e-12
   Tpresel                                  ... 2.500e-12 
Coulomb Range Separation                    ... NOT USED
Exchange Range Separation                   ... NOT USED
Multipole approximations                    ... NOT USED
Finite Nucleus Model                        ... NOT USED
CABS basis                                  ... NOT available
Auxiliary Coulomb fitting basis             ... AVAILABLE
   # of basis functions in Aux-J            ...   1762
   # of shells in Aux-J                     ...    590
   Maximum angular momentum in Aux-J        ...      4
Auxiliary J/K fitting basis                 ... NOT available
Auxiliary Correlation fitting basis         ... NOT available
Auxiliary 'external' fitting basis          ... NOT available

Checking pre-screening integrals            ... done (  0.0 sec) Dimension = 267
   => SHARK Basis and OBASIS are compatible. Storing Pre-screening
Shell pair information
Shell pair cut-off parameter TPreSel        ...   2.5e-12
Total number of shell pairs                 ...     35778
Shell pairs after pre-screening             ...     17373
Total number of primitive shell pairs       ...    127226
Primitive shell pairs kept                  ...     40004
          la=0 lb=0:   5609 shell pairs
          la=1 lb=0:   6550 shell pairs
          la=1 lb=1:   1958 shell pairs
          la=2 lb=0:   1943 shell pairs
          la=2 lb=1:   1140 shell pairs
          la=2 lb=2:    173 shell pairs

Checking whether 4 symmetric matrices of dimension 561 fit in memory
:Max Core in MB      =   2500.00
 MB in use           =     20.35
 MB left             =   2479.65
 MB needed           =      4.81
 Data fit in memory  = YES
Calculating RI/J V-Matrix + Cholesky decomp.... done (  3.0 sec)
Calculating Nuclear repulsion               ... done (  0.0 sec) ENN=   2533.829122707565 Eh

Diagonalization of the overlap matrix:
Smallest eigenvalue                        ... 2.058e-04
Time for diagonalization                   ...    0.216 sec
Threshold for overlap eigenvalues          ... 1.000e-07
Number of eigenvalues below threshold      ... 0
Time for construction of square roots      ...    0.118 sec
Total time needed                          ...    0.349 sec

-------------------
DFT GRID GENERATION
-------------------

General Integration Accuracy     IntAcc      ... 4.388
Radial Grid Type                 RadialGrid  ... OptM3 with GC (2021)
Angular Grid (max. ang.)         AngularGrid ... 4 (Lebedev-302)
Angular grid pruning method      GridPruning ... 4 (adaptive)
Weight generation scheme         WeightScheme... mBecke (2022)
Basis function cutoff            BFCut       ... 1.0000e-11
Integration weight cutoff        WCut        ... 1.0000e-14
Partially contracted basis set               ... off
Rotationally invariant grid construction     ... off
Angular grids for H and He will be reduced by one unit

Total number of grid points                  ...   271946
Total number of batches                      ...     4278
Average number of points per batch           ...       63
Average number of grid points per atom       ...     4532

--------------------
COSX GRID GENERATION
--------------------

GRIDX 1
-------
General Integration Accuracy     IntAcc      ... 3.816
Radial Grid Type                 RadialGrid  ... OptM3 with GC (2021)
Angular Grid (max. ang.)         AngularGrid ... 1 (Lebedev-50)
Angular grid pruning method      GridPruning ... 4 (adaptive)
Weight generation scheme         WeightScheme... mBecke (2022)
Basis function cutoff            BFCut       ... 1.0000e-11
Integration weight cutoff        WCut        ... 1.0000e-14
Partially contracted basis set               ... on
Rotationally invariant grid construction     ... off
Angular grids for H and He will be reduced by one unit

Total number of grid points                  ...    34639
Total number of batches                      ...      309
Average number of points per batch           ...      112
Average number of grid points per atom       ...      577
UseSFitting                                  ... on

GRIDX 2
-------
General Integration Accuracy     IntAcc      ... 4.020
Radial Grid Type                 RadialGrid  ... OptM3 with GC (2021)
Angular Grid (max. ang.)         AngularGrid ... 2 (Lebedev-110)
Angular grid pruning method      GridPruning ... 4 (adaptive)
Weight generation scheme         WeightScheme... mBecke (2022)
Basis function cutoff            BFCut       ... 1.0000e-11
Integration weight cutoff        WCut        ... 1.0000e-14
Partially contracted basis set               ... on
Rotationally invariant grid construction     ... off
Angular grids for H and He will be reduced by one unit

Total number of grid points                  ...    73712
Total number of batches                      ...      608
Average number of points per batch           ...      121
Average number of grid points per atom       ...     1229
UseSFitting                                  ... on

GRIDX 3
-------
General Integration Accuracy     IntAcc      ... 4.338
Radial Grid Type                 RadialGrid  ... OptM3 with GC (2021)
Angular Grid (max. ang.)         AngularGrid ... 3 (Lebedev-194)
Angular grid pruning method      GridPruning ... 4 (adaptive)
Weight generation scheme         WeightScheme... mBecke (2022)
Basis function cutoff            BFCut       ... 1.0000e-11
Integration weight cutoff        WCut        ... 1.0000e-14
Partially contracted basis set               ... on
Rotationally invariant grid construction     ... off
Angular grids for H and He will be reduced by one unit

Total number of grid points                  ...   160720
Total number of batches                      ...     1282
Average number of points per batch           ...      125
Average number of grid points per atom       ...     2679
UseSFitting                                  ... on
Grids setup in  19.4 sec
Initializing property integral containers    ... done (  0.2 sec)

SHARK setup successfully completed in  23.9 seconds

Maximum memory used throughout the entire STARTUP-calculation: 77.0 MB


           ************************************************************
           *        Program running with 4 parallel MPI-processes     *
           *              working on a common directory               *
           ************************************************************
-------------------------------------------------------------------------------
                                 ORCA GUESS
                   Start orbitals & Density for SCF / CASSCF
-------------------------------------------------------------------------------

------------
SCF SETTINGS
------------
Hamiltonian:
 Density Functional     Method          .... DFT(GTOs)
 Exchange Functional    Exchange        .... B88
   X-Alpha parameter    XAlpha          ....  0.666667
   Becke's b parameter  XBeta           ....  0.004200
 Correlation Functional Correlation     .... LYP
 LDA part of GGA corr.  LDAOpt          .... VWN-5
 Gradients option       PostSCFGGA      .... off
 Hybrid DFT is turned on
   Fraction HF Exchange ScalHFX         ....  0.200000
   Scaling of DF-GGA-X  ScalDFX         ....  0.720000
   Scaling of DF-GGA-C  ScalDFC         ....  0.810000
   Scaling of DF-LDA-C  ScalLDAC        ....  1.000000
   Perturbative correction              ....  0.000000
   NL short-range parameter             ....  4.800000
 RI-approximation to the Coulomb term is turned on
   Number of AuxJ basis functions       .... 1762
   RIJ-COSX (HFX calculated with COS-X)).... on


General Settings:
 Integral files         IntName         .... opt
 Hartree-Fock type      HFTyp           .... RHF
 Total Charge           Charge          ....    0
 Multiplicity           Mult            ....    1
 Number of Electrons    NEL             ....  214
 Basis Dimension        Dim             ....  561
 Nuclear Repulsion      ENuc            ....   2533.8291227076 Eh

Convergence Acceleration:
 AO-DIIS                CNVDIIS         .... on
   Start iteration      DIISMaxIt       ....    12
   Startup error        DIISStart       ....  0.200000
   # of expansion vecs  DIISMaxEq       ....     5
   Bias factor          DIISBfac        ....   1.050
   Max. coefficient     DIISMaxC        ....  10.000
 MO-DIIS                CNVKDIIS        .... off
 Trust-Rad. Augm. Hess. CNVTRAH         .... auto
   Auto Start mean grad. ratio tolernc. ....  1.125000
   Auto Start start iteration           ....    50
   Auto Start num. interpolation iter.  ....    10
   Max. Number of Micro iterations      ....    24
   Max. Number of Macro iterations      .... Maxiter - #DIIS iter
   Number of Davidson start vectors     ....     2
   Converg. threshold    (grad. norm)   ....   1.000e-05
   Grad. Scal. Fac. for Micro threshold ....   0.100
   Minimum threshold for Micro iter.    ....   1.000e-02
   NR start threshold (gradient norm)   ....   1.000e-04
   Initial trust radius                 ....   0.400
   Minimum AH scaling param. (alpha)    ....   1.000
   Maximum AH scaling param. (alpha)    .... 1000.000
   Quad. conv. algorithm                .... NR
   White noise on init. David. guess    .... on
   Maximum white noise                  ....   0.010
   Pseudo random numbers                .... off
   Inactive MOs                         .... canonical
   Orbital update algorithm             .... Taylor
   Preconditioner                       .... Diag
   Full preconditioner red. dimension   ....   250
 SOSCF                 CNVSOSCF           .... on
   Start iteration     SOSCFMaxIt         ....   150
   Startup grad/error  SOSCFStart         ....  0.003300
   Hessian update      SOSCFHessUp        .... L-BFGS
   Autom. constraints  SOSCFAutoConstrain .... off
 Level Shifting         CNVShift        .... on
   Level shift para.    LevelShift      ....    0.2500
   Turn off err/grad.   ShiftErr        ....    0.0010
 Zerner damping         CNVZerner       .... off
 Static damping         CNVDamp         .... on
   Fraction old density DampFac         ....    0.7000
   Max. Damping (<1)    DampMax         ....    0.9800
   Min. Damping (>=0)   DampMin         ....    0.0000
   Turn off err/grad.   DampErr         ....    0.1000

SCF Procedure:
 Maximum # iterations   MaxIter         ....   300
 SCF integral mode      SCFMode         .... Direct
   Integral package                     .... SHARK and LIBINT hybrid scheme
 Reset frequency        DirectResetFreq ....    20
 Integral Threshold     Thresh          ....  2.500e-11 Eh
 Primitive CutOff       TCut            ....  2.500e-12 Eh

Convergence Tolerance:
 Convergence Check Mode ConvCheckMode   .... Total+1el-Energy
 Convergence forced     ConvForced      .... 0
 Energy Change          TolE            ....  1.000e-08 Eh
 1-El. energy change                    ....  1.000e-05 Eh
 Orbital Gradient       TolG            ....  1.000e-05
 Orbital Rotation angle TolX            ....  1.000e-05
 DIIS Error             TolErr          ....  5.000e-07

------------------------------
INITIAL GUESS: MODEL POTENTIAL
------------------------------
Loading Hartree-Fock densities                     ... done
Calculating cut-offs                               ... done
Initializing the effective Hamiltonian             ... done
Setting up the integral package (SHARK)            ... done
Starting the Coulomb interaction                   ... done (   2.0 sec)
Making the grid                                    ... done (   2.0 sec)
Mapping shells                                     ... done
Starting the XC term evaluation                    ... done (   1.4 sec)
  promolecular density results
     # of electrons  =    213.977924323
     EX              =   -172.140572822
     EC              =     -7.219504415
     EX+EC           =   -179.360077237
Transforming the Hamiltonian                       ... done (   0.0 sec)
Diagonalizing the Hamiltonian                      ... done (   0.1 sec)
Back transforming the eigenvectors                 ... done (   0.0 sec)
Now organizing SCF variables                       ... done
                      ------------------
                      INITIAL GUESS DONE (   5.7 sec)
                      ------------------
             **** ENERGY FILE WAS UPDATED (opt.en.tmp) ****
Finished Guess after   6.3 sec
Maximum memory used throughout the entire GUESS-calculation: 29.3 MB


           ************************************************************
           *        Program running with 4 parallel MPI-processes     *
           *              working on a common directory               *
           ************************************************************

-------------------------------------------------------------------------------------------
                                      ORCA LEAN-SCF
                              memory conserving SCF solver
-------------------------------------------------------------------------------------------

--------------------
CPCM SOLVATION MODEL
--------------------
CPCM parameters:
  Epsilon                                         ...      25.4510
  Refrac                                          ...       1.3611
  Rsolv                                           ...       1.3000
  Surface type                                    ... GAUSSIAN VDW
  Discretization scheme                           ... Constant charge density
    Threshold for H atoms                         ...       5.0000 (charges/Ang^2)
    Threshold for non-H atoms                     ...       5.0000 (charges/Ang^2)
  Epsilon function type                           ...         CPCM
Solvent:                                          ... ETHANOL
Radii:
  Scheme                                          ... Element-dependent radii
  Radius for C  used is    3.8550 Bohr (=   2.0400 Ang.)
  Radius for O  used is    3.4469 Bohr (=   1.8240 Ang.)
  Radius for N  used is    3.5149 Bohr (=   1.8600 Ang.)
  Radius for H  used is    2.4944 Bohr (=   1.3200 Ang.)
Calculating surface                               ...        done! (  0.0s)
Cavity surface points                             ...         4974
Cavity Volume                                     ...    3344.4857
Cavity Surface-area                               ...    1725.5844
Calculating surface distance matrix               ...        done! (  0.5s)
Performing Cholesky decomposition & store         ...        done! (  4.4s)
Overall time for CPCM initialization              ...                 4.9s

----------------------------------------D-I-I-S--------------------------------------------
Iteration    Energy (Eh)           Delta-E    RMSDP     MaxDP     DIISErr   Damp  Time(sec)
-------------------------------------------------------------------------------------------
               ***  Starting incremental Fock matrix formation  ***
    1    -1286.4658456140768976     0.00e+00  4.08e-03  8.98e-02  2.61e-01  0.700  44.2
    2    -1286.8080065445669788    -3.42e-01  2.80e-03  4.98e-02  1.02e-01  0.700  28.4
                               ***Turning on AO-DIIS***
    3    -1286.9474506618553278    -1.39e-01  1.25e-03  1.90e-02  3.59e-02  0.700  20.6
    4    -1287.0306984947519595    -8.32e-02  2.26e-03  3.91e-02  1.93e-02  0.000  24.6
    5    -1287.2111518385140698    -1.80e-01  3.54e-04  7.68e-03  6.08e-03  0.000  23.6
                              *** Initializing SOSCF ***
---------------------------------------S-O-S-C-F--------------------------------------
Iteration    Energy (Eh)           Delta-E    RMSDP     MaxDP     MaxGrad    Time(sec)
--------------------------------------------------------------------------------------
    6    -1287.2121873764322117    -1.04e-03  1.18e-04  2.17e-03  1.50e-03    17.2
               *** Restarting incremental Fock matrix formation ***
    7    -1287.2121823333081920     5.04e-06  7.83e-05  1.38e-03  2.19e-04    41.1
    8    -1287.2121847388766582    -2.41e-06  2.87e-05  1.06e-03  3.20e-04    27.6
    9    -1287.2121912112693281    -6.47e-06  2.05e-05  5.55e-04  1.11e-04    18.8
   10    -1287.2121910356181615     1.76e-07  9.11e-06  2.28e-04  7.11e-05    26.0
   11    -1287.2121919533287837    -9.18e-07  3.33e-06  1.18e-04  1.82e-05    23.4
   12    -1287.2121919711726150    -1.78e-08  1.82e-06  6.70e-05  2.76e-05    13.7
   13    -1287.2121919911619443    -2.00e-08  8.72e-07  2.00e-05  2.39e-06    10.4
                  *** Gradient check signals convergence ***

               *****************************************************
               *                     SUCCESS                       *
               *           SCF CONVERGED AFTER  13 CYCLES          *
               *****************************************************

Recomputing exchange energy using gridx3       ... done (   51.692 sec)
Old exchange energy                            :    -35.003575276 Eh
New exchange energy                            :    -35.003659827 Eh
Exchange energy change after final integration :     -0.000084551 Eh
[...]

 47 H s       :     0.893600  s :     0.893600
      pz      :     0.021127  p :     0.072633
      px      :     0.014470
      py      :     0.037036

 48 H s       :     0.893018  s :     0.893018
      pz      :     0.018610  p :     0.074102
      px      :     0.041315
      py      :     0.014177

 49 H s       :     0.721843  s :     0.721843
      pz      :     0.041452  p :     0.230024
      px      :     0.136156
      py      :     0.052416

 50 H s       :     0.905351  s :     0.905351
      pz      :     0.020016  p :     0.066254
      px      :     0.033034
      py      :     0.013204

 51 H s       :     0.904084  s :     0.904084
      pz      :     0.015178  p :     0.064502
      px      :     0.028279
      py      :     0.021045

 52 H s       :     0.908431  s :     0.908431
      pz      :     0.019800  p :     0.064664
      px      :     0.030721
      py      :     0.014143

 53 H s       :     0.909894  s :     0.909894
      pz      :     0.015453  p :     0.064942
      px      :     0.028494
      py      :     0.020995

 54 H s       :     0.903159  s :     0.903159
      pz      :     0.013843  p :     0.064377
      px      :     0.013228
      py      :     0.037306

 55 H s       :     0.904073  s :     0.904073
      pz      :     0.026952  p :     0.064510
      px      :     0.015632
      py      :     0.021926

 56 H s       :     0.905492  s :     0.905492
      pz      :     0.015757  p :     0.066166
      px      :     0.010263
      py      :     0.040145

 57 H s       :     0.908644  s :     0.908644
      pz      :     0.014826  p :     0.064635
      px      :     0.012368
      py      :     0.037442

 58 H s       :     0.903113  s :     0.903113
      pz      :     0.012133  p :     0.064390
      px      :     0.039171
      py      :     0.013086

 59 H s       :     0.909593  s :     0.909593
      pz      :     0.026558  p :     0.065035
      px      :     0.016690
      py      :     0.021788



                      *****************************
                      * MAYER POPULATION ANALYSIS *
                      *****************************

  NA   - Mulliken gross atomic population
  ZA   - Total nuclear charge
  QA   - Mulliken gross atomic charge
  VA   - Mayer's total valence
  BVA  - Mayer's bonded valence
  FA   - Mayer's free valence

  ATOM       NA         ZA         QA         VA         BVA        FA
  0 C      5.9930     6.0000     0.0070     4.0139     4.0139    -0.0000
  1 C      6.0104     6.0000    -0.0104     4.1088     4.1088    -0.0000
  2 C      5.9990     6.0000     0.0010     4.0710     4.0710     0.0000
  3 C      6.0099     6.0000    -0.0099     4.0839     4.0839    -0.0000
  4 C      6.0026     6.0000    -0.0026     4.0746     4.0746    -0.0000
  5 C      5.7646     6.0000     0.2354     3.9569     3.9569    -0.0000
  6 O      8.3091     8.0000    -0.3091     2.2270     2.2270    -0.0000
  7 C      5.7558     6.0000     0.2442     4.2355     4.2355     0.0000
  8 O      8.2661     8.0000    -0.2661     2.2486     2.2486    -0.0000
  9 C      6.0172     6.0000    -0.0172     3.6551     3.6551    -0.0000
 10 C      6.0012     6.0000    -0.0012     3.8374     3.8374    -0.0000
 11 C      5.9883     6.0000     0.0117     3.8450     3.8450     0.0000
 12 C      5.9986     6.0000     0.0014     3.7513     3.7513     0.0000
 13 C      5.9872     6.0000     0.0128     3.8323     3.8323     0.0000
 14 C      5.9972     6.0000     0.0028     3.8373     3.8373    -0.0000
 15 C      5.8497     6.0000     0.1503     3.9712     3.9712    -0.0000
 16 O      8.3363     8.0000    -0.3363     2.2027     2.2027     0.0000
 17 C      6.0297     6.0000    -0.0297     3.5377     3.5377    -0.0000
 18 C      6.0237     6.0000    -0.0237     3.8379     3.8379     0.0000
 19 C      6.0746     6.0000    -0.0746     3.8106     3.8106     0.0000
 20 C      5.7896     6.0000     0.2104     3.7787     3.7787    -0.0000
 21 C      6.1497     6.0000    -0.1497     3.7368     3.7368    -0.0000
 22 C      5.8867     6.0000     0.1133     4.0779     4.0779    -0.0000
 23 O      8.2088     8.0000    -0.2088     2.3013     2.3013    -0.0000
 24 N      7.2709     7.0000    -0.2709     3.2986     3.2986     0.0000
 25 C      5.9055     6.0000     0.0945     4.0932     4.0932     0.0000
 26 C      5.9927     6.0000     0.0073     4.0112     4.0112    -0.0000
 27 C      5.9052     6.0000     0.0948     4.0954     4.0954     0.0000
 28 C      5.9930     6.0000     0.0070     4.0141     4.0141     0.0000
 29 H      0.9908     1.0000     0.0092     0.9876     0.9876     0.0000
 30 H      0.9890     1.0000     0.0110     0.9819     0.9819    -0.0000
 31 H      0.9908     1.0000     0.0092     0.9876     0.9876    -0.0000
 32 H      1.0009     1.0000    -0.0009     0.9769     0.9769    -0.0000
 33 H      1.0014     1.0000    -0.0014     0.9770     0.9770    -0.0000
 34 H      1.0046     1.0000    -0.0046     0.9818     0.9818     0.0000
 35 H      1.0045     1.0000    -0.0045     0.9823     0.9823    -0.0000
 36 H      0.9977     1.0000     0.0023     0.9815     0.9815     0.0000
 37 H      0.9985     1.0000     0.0015     0.9819     0.9819     0.0000
 38 H      0.9931     1.0000     0.0069     0.9949     0.9949     0.0000
 39 H      0.9902     1.0000     0.0098     0.9858     0.9858     0.0000
 40 H      0.9829     1.0000     0.0171     1.0140     1.0140     0.0000
 41 H      0.9734     1.0000     0.0266     0.9877     0.9877    -0.0000
 42 H      0.9973     1.0000     0.0027     1.0074     1.0074    -0.0000
 43 H      0.9996     1.0000     0.0004     0.9985     0.9985    -0.0000
 44 H      0.9887     1.0000     0.0113     0.9941     0.9941     0.0000
 45 H      0.9927     1.0000     0.0073     1.0044     1.0044    -0.0000
 46 H      0.9965     1.0000     0.0035     0.9968     0.9968    -0.0000
 47 H      1.0107     1.0000    -0.0107     0.9914     0.9914     0.0000
 48 H      1.0277     1.0000    -0.0277     1.0138     1.0138     0.0000
 49 H      0.8067     1.0000     0.1933     1.0873     1.0873    -0.0000
 50 H      0.9678     1.0000     0.0322     0.9849     0.9849    -0.0000
 51 H      0.9713     1.0000     0.0287     0.9857     0.9857    -0.0000
 52 H      0.9797     1.0000     0.0203     0.9949     0.9949    -0.0000
 53 H      0.9793     1.0000     0.0207     0.9970     0.9970    -0.0000
 54 H      0.9747     1.0000     0.0253     0.9882     0.9882    -0.0000
 55 H      0.9709     1.0000     0.0291     0.9858     0.9858     0.0000
 56 H      0.9684     1.0000     0.0316     0.9842     0.9842     0.0000
 57 H      0.9800     1.0000     0.0200     0.9946     0.9946    -0.0000
 58 H      0.9748     1.0000     0.0252     0.9882     0.9882    -0.0000
 59 H      0.9786     1.0000     0.0214     0.9970     0.9970     0.0000

  Mayer bond orders larger than 0.100000
B(  0-C ,  1-C ) :   1.1060 B(  0-C , 29-H ) :   0.9690 B(  0-C , 30-H ) :   0.9649 
B(  0-C , 31-H ) :   0.9689 B(  1-C ,  2-C ) :   1.0837 B(  1-C , 32-H ) :   0.9439 
B(  1-C , 33-H ) :   0.9439 B(  2-C ,  3-C ) :   1.0831 B(  2-C , 34-H ) :   0.9415 
B(  2-C , 35-H ) :   0.9414 B(  3-C ,  4-C ) :   1.0829 B(  3-C , 36-H ) :   0.9404 
B(  3-C , 37-H ) :   0.9399 B(  4-C ,  5-C ) :   1.1006 B(  4-C , 38-H ) :   0.9327 
B(  4-C , 39-H ) :   0.9333 B(  5-C ,  6-O ) :   0.8835 B(  5-C , 40-H ) :   0.9325 
B(  5-C , 41-H ) :   0.9485 B(  6-O ,  7-C ) :   1.2346 B(  7-C ,  8-O ) :   2.0291 
B(  7-C ,  9-C ) :   0.9338 B(  9-C , 10-C ) :   1.3553 B(  9-C , 14-C ) :   1.3513 
B( 10-C , 11-C ) :   1.3584 B( 10-C , 42-H ) :   0.9916 B( 11-C , 12-C ) :   1.3535 
B( 11-C , 43-H ) :   0.9973 B( 12-C , 13-C ) :   1.3612 B( 12-C , 15-C ) :   0.9628 
B( 13-C , 14-C ) :   1.3630 B( 13-C , 44-H ) :   0.9905 B( 14-C , 45-H ) :   0.9911 
B( 15-C , 16-O ) :   1.8277 B( 15-C , 17-C ) :   1.0973 B( 16-O , 49-H ) :   0.1943 
B( 17-C , 18-C ) :   1.2300 B( 17-C , 22-C ) :   1.1702 B( 18-C , 19-C ) :   1.4896 
B( 18-C , 46-H ) :   0.9748 B( 19-C , 20-C ) :   1.2011 B( 19-C , 47-H ) :   0.9871 
B( 20-C , 21-C ) :   1.2450 B( 20-C , 24-N ) :   1.2255 B( 21-C , 22-C ) :   1.3617 
B( 21-C , 48-H ) :   0.9917 B( 22-C , 23-O ) :   1.3485 B( 23-O , 49-H ) :   0.8534 
B( 24-N , 25-C ) :   0.9675 B( 24-N , 27-C ) :   0.9680 B( 25-C , 26-C ) :   1.1240 
B( 25-C , 50-H ) :   0.9378 B( 25-C , 51-H ) :   0.9382 B( 26-C , 52-H ) :   0.9608 
B( 26-C , 53-H ) :   0.9633 B( 26-C , 54-H ) :   0.9616 B( 27-C , 28-C ) :   1.1254 
B( 27-C , 55-H ) :   0.9383 B( 27-C , 56-H ) :   0.9365 B( 28-C , 57-H ) :   0.9608 
B( 28-C , 58-H ) :   0.9618 B( 28-C , 59-H ) :   0.9634 

-------
TIMINGS
-------

Total SCF time: 0 days 0 hours 2 min 34 sec 

Total time                  ....     154.451 sec
Sum of individual times     ....     144.496 sec  ( 93.6%)

SCF preparation             ....       2.725 sec  (  1.8%)
Fock matrix formation       ....     139.736 sec  ( 90.5%)
  Startup                   ....       0.046 sec  (  0.0% of F)
  Split-RI-J                ....      11.012 sec  (  7.9% of F)
  Chain of spheres X        ....     108.252 sec  ( 77.5% of F)
  XC integration            ....      11.590 sec  (  8.3% of F)
    Basis function eval.    ....       4.101 sec  ( 35.4% of XC)
    Density eval.           ....       2.642 sec  ( 22.8% of XC)
    XC-Functional eval.     ....       0.364 sec  (  3.1% of XC)
    XC-Potential eval.      ....       2.943 sec  ( 25.4% of XC)
  CPCM terms                ....      17.700 sec  ( 12.7% of F)
Diagonalization             ....       0.000 sec  (  0.0%)
Density matrix formation    ....       0.296 sec  (  0.2%)
Total Energy calculation    ....       0.146 sec  (  0.1%)
Population analysis         ....       0.356 sec  (  0.2%)
Orbital Transformation      ....       0.118 sec  (  0.1%)
Orbital Orthonormalization  ....       0.000 sec  (  0.0%)
DIIS solution               ....       0.200 sec  (  0.1%)
SOSCF solution              ....       0.919 sec  (  0.6%)
Finished LeanSCF after 155.2 sec

Maximum memory used throughout the entire LEANSCF-calculation: 121.5 MB

-------------------------   --------------------
FINAL SINGLE POINT ENERGY     -1287.221534932623
-------------------------   --------------------

                                *** OPTIMIZATION RUN DONE ***



           ************************************************************
           *        Program running with 4 parallel MPI-processes     *
           *              working on a common directory               *
           ************************************************************

------------------------------------------------------------------------------
                              ORCA PROPERTY CALCULATIONS
------------------------------------------------------------------------------

GBWName                                 ... opt.gbw
Number of atoms                         ...     60
Number of basis functions               ...    561
Max core memory                         ...   2500 MB

Electric properties:
Dipole moment                           ... YES
Quadrupole moment                       ...  NO
Static polarizability (Dipole/Dipole)   ...  NO
Static polarizability (Dipole/Quad.)    ...  NO
Static polarizability (Quad./Quad.)     ...  NO
Static polarizability (Velocity)        ...  NO
Static hyperpolarizability              ...  NO

Atomic electric properties:
Dipole moment                           ...  NO
Quadrupole moment                       ...  NO
Static polarizability                   ...  NO

Choice of electric origin               ... Center of mass
Position of electric origin             ...    -0.731883    -1.385809    -0.422874

General magnetic properties:
Magnetizability                         ...  NO

EPR properties:
g-Tensor (aka g-matrix)                 ...  NO
Zero-Field splitting spin-orbit         ...  NO
Zero-field splitting spin-spin          ...  NO
Hyperfine couplings                     ...  NO (   0 nuclei)
Quadrupole couplings                    ...  NO (   0 nuclei)
Contact density                         ...  NO (   0 nuclei)

NMR properties:
Chemical shifts                         ...  NO (   0 nuclei)
Spin-rotation constants                 ...  NO (   0 nuclei)
Spin-spin couplings                     ...  NO (   0 nuclei,    0 pairs)

Choice of magnetic origin               ... GIAO
Position of magnetic origin             ...     0.000000     0.000000     0.000000

Properties with geometric perturbations:
SCF Hessian                             ...  NO
IR spectrum                             ...  NO
VCD spectrum                            ...  NO
X-ray spectroscopy properties:
SCF XES/XAS/RIXS spectra                ...  NO

SCF SOC stabilization energy            ...  NO
Diagonal Born-Oppenheimer correction    ...  NO

-------------
DIPOLE MOMENT
-------------

Method             : SCF
Type of density    : Electron Density
Multiplicity       :   1
Irrep              :   0
Energy             : -1287.2215349326227170 Eh
Basis              : AO
                                X                 Y                 Z
Electronic contribution:    -24.194658931     -34.918149429     -12.238311728
Nuclear contribution   :     23.273631344      38.657545717      12.818519646
                        -----------------------------------------
Total Dipole Moment    :     -0.921027587       3.739396288       0.580207918
                        -----------------------------------------
Magnitude (a.u.)       :      3.894613927
Magnitude (Debye)      :      9.899321891



--------------------
Rotational spectrum 
--------------------
 
Rotational constants in cm-1:             0.008476             0.001481             0.001298 
Rotational constants in MHz :           254.100901            44.386530            38.925661 

Dipole components along the rotational axes: 
x,y,z [a.u.] :    -0.777562     3.719851    -0.852127 
x,y,z [Debye]:    -1.976404     9.455111    -2.165936 

 

Dipole moment calculation done in   0.1 sec 

Maximum memory used throughout the entire PROP-calculation: 31.8 MB

--------------------------------
SUGGESTED CITATIONS FOR THIS RUN
--------------------------------

Below you find a list of papers that are relevant to this ORCA run
We neither can nor want to force you to cite these papers, but we appreciate if you do
You receive ORCA, which is the product of decades of hard work by many enthusiastic individuals, for free
The only thing we kindly ask in return is that you cite our papers,
We deeply appreciate it, if you show your appreciation for ORCA by not just citing the generic ORCA reference.

Please note that relegating all ORCA citations to the supporting information does *not* help us.
SI sections are not indexed - citations you put there will not count into any citation statistics
But we need these citations in order to attract the funding resources that allow us to do what we are doing

Therefore, if you are a happy ORCA user, please consider citing a few of the papers listed below in the main body of your paper

In addition to the list printed below, the program has created the file opt.bibtex that contains the list in bibtex format
You can import this file easily into all common literature databanks and citation aid programs

It goes without saying that in many instances, there are alternative algorithms to achieve similar
results as the ones you have gotten from ORCA. It is, of course, also the case that in some instances
ORCA just re-implements algorithms worked out by others. We are fully aware of that and we are also
fully appreciative of our colleagues work. Hence this citation list should not be read as indicating
that the listed papers, which are focused on our own work, are the only ones worth citing. It simply
meant to make it easier for users to cite ORCA specific papers. It is not a substitute for doing your
own literature research and citing the relevant literature in a scientifically appropriate manner.

List of essential papers. We consider these as the minimum necessary citations

  1. Neese, F.
     Software update: the ORCA program system, version 6.0
     WIRES Comput. Molec. Sci. 2025 15(1), e70019
     doi.org/10.1002/wcms.70019

List of papers to cite with high priority. The work reported in these papers was absolutely
necessary for this run to complete.
Our perspective: the developers of density functionals and basis sets usually get cited in chemistry papers
Good! But without the algorithms to do something with them, the functionals or basis sets would not do anything.
Hence, in our opinion, the algorithm design and method developments papers are equally worthy of getting cited

  1. Neese, F.
     An improvement of the resolution of the identity approximation for the formation of the Coulomb matrix
     J. Comp. Chem. 2003 24(14), 1740-1747
     doi.org/10.1002/jcc.10318
  2. Neese, F.; Wennmohs, F.; Hansen, A.; Becker, U.
     Efficient, approximate and parallel Hartree-Fock and hybrid DFT calculations. A 'chain-of-spheres' algorithm for the Hartree-Fock exchange
     Chem. Phys. 2009 356(1-3), 98-109
     doi.org/10.1016/j.chemphys.2008.10.036
  3. Garcia-Rates, M.; Neese, F.
     Effect of the Solute Cavity on the Solvation Energy and its Derivatives within the Framework of the Gaussian Charge Scheme
     J. Comput. Chem. 2020 41 , 922-939
     doi.org/10.1002/jcc.26139
  4. Helmich-Paris, B.; de Souza, B.; Neese, F.; Izsák, R.
     An improved chain of spheres for exchange algorithm
     J. Chem. Phys. 2021 155(10), 104109
     doi.org/10.1063/5.0058766
  5. Neese, F.
     The SHARK Integral Generation and Digestion System
     J. Comp. Chem. 2022 44(3), 381
     doi.org/10.1002/jcc.26942

List of suggested additional citations. These are papers that are important in the 'surrounding' of 
of this run, or papers that preceded the highly important papers. If you like your results we are grateful for a citation.

  1. Izsak, R.; Neese, F.
     An overlap fitted chain of spheres exchange method
     J. Chem. Phys. 2011 135 , 144105
     doi.org/10.1063/1.3646921
  2. Izsak, R.; Hansen, A.; Neese, F.
     The resolution of identity and chain of spheres approximations for the LPNO-CCSD singles Fock term
     Molec. Phys. 2012 110 , 2413-2417
     doi.org/10.1080/00268976.2012.687466
  3. Neese, F.
     The ORCA program system
     WIRES Comput. Molec. Sci. 2012 2(1), 73-78
     doi.org/10.1002/wcms.81
  4. Izsak, R.; Neese, F.; Klopper, W.
     Robust fitting techniques in the chain of spheres approximation to the Fock exchange: The role of the complementary space
     J. Chem. Phys. 2013 139 , 
     doi.org/10.1063/1.4819264
  5. Neese, F.
     Software update: the ORCA program system, version 4.0
     WIRES Comput. Molec. Sci. 2018 8(1), 1-6
     doi.org/10.1002/wcms.1327
  6. Neese, F.; Wennmohs, F.; Becker, U.; Riplinger, C.
     The ORCA quantum chemistry program package
     J. Chem. Phys. 2020 152(22), 224108
     doi.org/10.1063/5.0004608
  7. Neese, F.
     Software update: The ORCA program system—Version 5.0
     WIRES Comput. Molec. Sci. 2022 12(1), e1606
     doi.org/10.1002/wcms.1606

List of optional additional citations

  1. Neese, F.
     Approximate second-order SCF convergence for spin unrestricted wavefunctions
     Chem. Phys. Lett. 2000 325(1-3), 93-98
     doi.org/10.1016/s0009-2614(00)00662-x

Timings for individual modules:

Sum of individual times          ...     5990.924 sec (=  99.849 min)
Startup calculation              ...      184.753 sec (=   3.079 min)   3.1 %
SCF iterations                   ...     3762.172 sec (=  62.703 min)  62.8 %
Property calculations            ...        0.512 sec (=   0.009 min)   0.0 %
SCF Gradient evaluation          ...     2041.922 sec (=  34.032 min)  34.1 %
Geometry relaxation              ...        1.565 sec (=   0.026 min)   0.0 %
                             ****ORCA TERMINATED NORMALLY****
TOTAL RUN TIME: 0 days 1 hours 40 minutes 3 seconds 390 msec
