
                                 *****************
                                 * O   R   C   A *
                                 *****************

                                            #,                                       
                                            ###                                      
                                            ####                                     
                                            #####                                    
                                            ######                                   
                                           ########,                                 
                                     ,,################,,,,,                         
                               ,,#################################,,                 
                          ,,##########################################,,             
                       ,#########################################, ''#####,          
                    ,#############################################,,   '####,        
                  ,##################################################,,,,####,       
                ,###########''''           ''''###############################       
              ,#####''   ,,,,##########,,,,          '''####'''          '####       
            ,##' ,,,,###########################,,,                        '##       
           ' ,,###''''                  '''############,,,                           
         ,,##''                                '''############,,,,        ,,,,,,###''
      ,#''                                            '''#######################'''  
     '                                                          ''''####''''         
             ,#######,   #######,   ,#######,      ##                                
            ,#'     '#,  ##    ##  ,#'     '#,    #''#        ,####,    ,#,          
            ##       ##  ##   ,#'  ##            #'  '#       #'       ,# #          
            ##       ##  #######   ##           ,######,      #####,      #          
            '#,     ,#'  ##    ##  '#,     ,#' ,#      #,     #,   #      #          
             '#######'   ##     ##  '#######'  #'      '#     '####' #    #          



                #########################################################
                #                        -***-                          #
                #          Department of theory and spectroscopy        #
                #                                                       #
                #                      Frank Neese                      #
                #                                                       #
                #     Directorship, Architecture, Infrastructure        #
                #                    SHARK, DRIVERS                     #
                #        Core code/Algorithms in most modules           #
                #                                                       #
                #        Max Planck Institute fuer Kohlenforschung      #
                #                Kaiser Wilhelm Platz 1                 #
                #                 D-45470 Muelheim/Ruhr                 #
                #                      Germany                          #
                #                                                       #
                #                  All rights reserved                  #
                #                        -***-                          #
                #########################################################


                         Program Version 6.1.1  -  RELEASE   -


 With contributions from (in alphabetic order):
[Max-Planck-Institut fuer Kohlenforschung]                               
  Daniel Aravena         : Magnetic Suceptibility                        
  Michael Atanasov       : Ab Initio Ligand Field Theory (pilot matlab implementation)
  Alexander A. Auer      : GIAO ZORA, VPT2 properties, NMR spectrum      
  Ute Becker             : All parallelization in ORCA, NUMFREQ, NUMCALC 
  Giovanni Bistoni       : ED, misc. LED, open-shell LED, HFLD           
  Dmytro Bykov           : pre 5.0 version of the SCF Hessian            
  Marcos Casanova-Páez   : Triplet and SCS-CIS(D). UHF-(DLPNO)-IP/EA/STEOM-CCSD. UHF-CVS-IP/STEOM-CCSD   
  Vijay G. Chilkuri      : MRCI spin determinant printing, contributions to CSF-ICE 
  Pauline Colinet        : FMM embedding                                 
  Dipayan Datta          : RHF DLPNO-CCSD density                        
  Achintya Kumar Dutta   : EOM-CC, STEOM-CC                              
  Nicolas Foglia         : Exact transition moments, OPA infrastructure, MCD improvements    
  Dmitry Ganyushin       : Spin-Orbit,Spin-Spin,Magnetic field MRCI      
  Miquel Garcia-Rates    : C-PCM and meta-GGA Hessian, CCSD/C-PCM, Gaussian charge scheme 
  Tiago L. C. Gouveia    : GS-ROHF, GS-ROCIS                             
  Yang Guo               : DLPNO-NEVPT2, F12-NEVPT2, CIM, IAO-localization        
  Andreas Hansen         : Spin unrestricted coupled pair/coupled cluster methods 
  Ingolf Harden          : AUTO-CI MPn and infrastructure                
  Benjamin Helmich-Paris : MC-RPA, TRAH-(SCF,CASSCF), AVAS, COSX integrals, SCF dyn. polar., MC-PDFT, srDFT 
  Lee Huntington         : MR-EOM, pCC                                   
  Robert Izsak           : Overlap fitted RIJCOSX, COSX-SCS-MP3, EOM     
  Riya Kayal             : Wick's Theorem for AUTO-CI, AUTO-CI UHF-CCSDT 
  Emily Kempfer          : AUTO-CI RHF CISDT and CCSDT, approximate NEVPT4
  Christian Kollmar      : KDIIS, OOCD, Brueckner-CCSD(T), CCSD density, CASPT2, CASPT2-K, improved NEVPT2 
  Axel Koslowski         : Symmetry handling                             
  Simone Kossmann        : meta-GGA functionals, TD-DFT gradient, OOMP2, (MP2 Hessian; deprecated post 5.0) 
  Lucas Lang             : DCDCAS, Hyperfine gauge corrections, ICE-SOC+SSC
  Marvin Lechner         : AUTO-CI (C++ implementation), FIC-MRCC        
  Spencer Leger          : CASSCF response                               
  Dagmar Lenk            : GEPOL surface, SMD, ORCA-2-JSON               
  Dimitrios Liakos       : Extrapolation schemes; Compound Job, Property file
  Dimitrios Manganas     : Further ROCIS development; embedding schemes. LFT, Crystal Embedding 
  Dimitrios Pantazis     : SARC Basis sets                               
  Anastasios Papadopoulos: AUTO-CI, single reference methods and gradients 
  Taras Petrenko         : pre 6.0 DFT Hessian and TD-DFT gradient,  ECA, NRVS 
  Petra Pikulova         : Analytic Raman intensities                    
  Peter Pinski           : DLPNO-MP2, DLPNO-MP2 Gradient                 
  Shashank Vittal Rao    : ES-AILFT, MagRelax                            
  Christoph Reimann      : Effective Core Potentials                     
  Marius Retegan         : Local ZFS, SOC                                
  Christoph Riplinger    : Optimizer, TS searches, QM/MM, DLPNO-CCSD(T), (RO)-DLPNO pert. Triples 
  Michael Roemelt        : Original ROCIS implementation, recursive CI coupling coefficients
  Masaaki Saitow         : Open-shell DLPNO-CCSD energy and density      
  Barbara Sandhoefer     : DKH picture change effects                    
  Yorick L. A. Schmerwitz: GMF and freeze-and-release deltaSCF, NEB S-IDPP initial path                    
  Kantharuban Sivalingam : CASSCF convergence/infrastructure, NEVPT2, NEVPT3, NEVPT4(SD), FIC-MRCI and CEPA variants
  Bernardo de Souza      : ESD, SOC TD-DFT                               
  Georgi L. Stoychev     : AutoAux, RI-MP2 NMR, DLPNO-MP2 response, X2C  
  Van Anh Tran           : RI-MP2 g-tensors                              
  Willem Van den Heuvel  : Paramagnetic NMR                              
  Zikuan Wang            : NOTCH, Electric field optimization            
  Frank Wennmohs         : Technical directorship and infrastructure     
  Hang Xu                : AUTO-CI-Response properties                   
                                                                         
[FACCTs GmbH]                                                            
  Markus Bursch, Nicolas Foglia, Miquel Garcia-Rates, Ingolf Harden, Hagen Neugebauer, Anastasios Papadopoulos, 
  Christoph Riplinger, Bernardo de Souza, Georgi L. Stoychev                                                    
                                                                 
  APM, various basis sets, CI-OPT, improved COSX, DLPNO-Multilevel,           
  DOCKER, DRACO, updates on ESD, Fragmentator, GOAT, IRC, LR-CPCM, L-BFGS, MBIS, meta-GGA TD-DFT gradient, ML-optimized integration grids, 
  MM, NACMEs, nearIR, NEB, NEB-TS, NL-DFT gradient (VV10), 2- and 3-layer-ONIOM, interface openCOSMO-RS, QMMM,   
  Crystal-QMMM, RESP, rigid body optimization, SF, symmetry and pop. for TD-DFT, various functionals, SOLVATOR                                   
                                                                         
[Other institutions]                                                     
  V. Asgeirsson          : NEB                                           
  Christoph Bannwarth    : sTDA-DFT, sTD-DFT, PBEh-3c, B97-3c, D3        
  Giovanni Bistoni       : ETS/NOCV, ADLD/ADEX, COVALED                  
  Martin Brehm           : Molecular dynamics                            
  Ronald Cardenas        : ETS/NOCV                                      
  Martina Colucci        : COVALED                                       
  Sebastian Ehlert       : rSCAN, r2SCAN, r2SCAN-3c, D4, dhf basis sets  
  Marvin Friede          : D4 for Fr, Ra, Ac-Lr                          
  Lars Goerigk           : TD-DFT with DH, B97 family of functionals     
  Stefan Grimme          : VdW corrections, initial TS optimization, DFT functionals, gCP, sTDA/sTD-DF 
  Waldemar Hujo          : DFT-NL                                        
  H. Jonsson             : NEB                                           
  Holger Kruse           : gCP                                           
  Marcel Mueller         : wB97X-3c, vDZP basis set                      
  Hagen Neugebauer       : wr2SCAN, Native XTB                           
  Gianluca Regni         : ADLD/ADEX                                     
  Tobias Risthaus        : pre 6.0 range-separated hybrid DFT and stability analysis
  Lukas Wittmann         : regularized MP2, r2SCAN double-hybrids, wr2SCAN        
                                                                         
We gratefully acknowledge several colleagues who have allowed us to      
interface, adapt or use parts of their codes:                            
  Ed Valeev, F. Pavosevic, A. Kumar             : LibInt (2-el integral package), F12 methods 
  Garnet Chan, S. Sharma, J. Yang, R. Olivares  : DMRG                   
  Ulf Ekstrom                                   : XCFun DFT Library      
  Mihaly Kallay                                 : mrcc  (arbitrary order and MRCC methods)
  Frank Weinhold                                : gennbo (NPA and NBO analysis)           
  Simon Mueller                                 : openCOSMO-RS                            
  Christopher J. Cramer and Donald G. Truhlar   : smd solvation model                     
  S Lehtola, MJT Oliveira, MAL Marques          : LibXC Library                           
  Liviu Ungur et al                             : ANISO software                          


 Your calculation uses the libint2 library for the computation of 2-el integrals
 For citations please refer to: http://libint.valeyev.net

 Your ORCA version has been built with support for libXC version: 7.0.0
 For citations please refer to: https://libxc.gitlab.io

 This ORCA versions uses:
   CBLAS   interface :  Fast vector & matrix operations
   LAPACKE interface :  Fast linear algebra routines
   Shared memory     :  Shared parallel matrices


  ***********************************
  * Starting time: Tue Jul 21 11:52:58 2026
  * Host name:     DESKTOP-19Q153E
  * Process ID:    31540
  * Working dir.:  C:\Users\ysm04\Documents\etc\uv_vis\calculations\02_tddft_orca\enolB\enolB_c000\b3lyp_def2svp\none
  ***********************************

NOTE: MaxCore=2500 MB was set to SCF,MP2,MDCI,CIPSI,MRCI,RASCI and CIS
      => If you want to overwrite this, your respective input block should be placed after the MaxCore statement
================================================================================

----- Orbital basis set information -----
Your calculation utilizes the basis: def2-SVP
   F. Weigend and R. Ahlrichs, Phys. Chem. Chem. Phys. 7, 3297 (2005).

----- AuxJ basis set information -----
Your calculation utilizes the auxiliary basis: def2/J
   H-Rn: F. Weigend, Phys. Chem. Chem. Phys. 8, 1057 (2006).
   Fr-Lr: K. Eichkorn, F. Weigend, O. Treutler, R. Ahlrichs; Theor. Chem. Acc. 97, 119 (1997).

================================================================================
                                        WARNINGS
                       Please study these warnings very carefully!
================================================================================


WARNING: CIS/ROCIS methods need fully converged wavefunctions
  ===> : Setting SCFConvForced true
         You can overwrite this default with %scf ConvForced false 


================================================================================
                                       INPUT FILE
================================================================================
NAME = td.inp
|  1> # enolB / enolB_c000 / b3lyp_def2svp / solvent=none
|  2> ! B3LYP def2-SVP RIJCOSX def2/J TightSCF
|  3> %pal nprocs 4 end
|  4> %maxcore 2500
|  5> %scf
|  6>   MaxIter 300
|  7> end
|  8> %tddft
|  9>   nroots 18
| 10>   tda    true
| 11>   maxdim 5
| 12> end
| 13> * xyz 0 1
| 14> C      8.4022212000    -0.1389586400    -1.5272796700
| 15> O      7.1106282600     0.1891831100    -2.0043584100
| 16> C      6.0601608500     0.1317164900    -1.1523779200
| 17> C      6.1329012800    -0.2421546900     0.1883481000
| 18> C      4.9894366700    -0.2579441300     0.9605340400
| 19> C      3.7442251500     0.0846657800     0.4299824200
| 20> C      3.6820370700     0.4619013900    -0.9161988400
| 21> C      4.8173739900     0.4862632100    -1.6903230500
| 22> C      2.5681837200     0.0482924100     1.2993099200
| 23> O      2.8320641900    -0.0153003600     2.6002114900
| 24> C      1.2774835500     0.0631920500     0.8334699300
| 25> C      0.1576959700     0.0061944000     1.7248870100
| 26> O      0.2956569600    -0.0785220500     2.9646681000
| 27> C     -1.2040804600     0.0188063100     1.1442225300
| 28> C     -1.5193240200     0.6600114800    -0.0497874600
| 29> C     -2.8157622300     0.6544435300    -0.5315664600
| 30> C     -3.8422776500     0.0054237200     0.1476595900
| 31> C     -5.2749963900    -0.0353266600    -0.3591238700
| 32> C     -5.6763651000    -1.4997123700    -0.5936096100
| 33> C     -6.1987382200     0.5944632100     0.6944510300
| 34> C     -5.4600945700     0.7281556700    -1.6740707700
| 35> C     -3.5183291200    -0.6282447800     1.3472297600
| 36> C     -2.2320671400    -0.6144059600     1.8420142600
| 37> H      8.7077612600     0.5309774500    -0.7188419000
| 38> H      8.4460003400    -1.1768522400    -1.1850425000
| 39> H      9.0657205100    -0.0079192800    -2.3800531500
| 40> H      7.0723823400    -0.5207501700     0.6371881300
| 41> H      5.0496611800    -0.5481298200     1.9978900200
| 42> H      2.7438511200     0.7577856900    -1.3559158100
| 43> H      4.7782726400     0.7827295900    -2.7264592600
| 44> H      1.9547606000    -0.0550874600     3.0814064100
| 45> H      1.0890069300     0.0681874800    -0.2231113600
| 46> H     -0.7586069300     1.1969985100    -0.5959045400
| 47> H     -3.0143981000     1.1724842600    -1.4552652200
| 48> H     -5.0114487800    -1.9606017000    -1.3212553000
| 49> H     -5.6278316900    -2.0762417000     0.3259226700
| 50> H     -6.6939080000    -1.5498110800    -0.9746310100
| 51> H     -7.2270382400     0.5856296400     0.3399556900
| 52> H     -6.1587933300     0.0515724300     1.6344953300
| 53> H     -5.9068371600     1.6255846200     0.8832862600
| 54> H     -4.8546592000     0.2953635400    -2.4668416100
| 55> H     -6.5027509700     0.6717778700    -1.9791477400
| 56> H     -5.2013921900     1.7777856500    -1.5567950900
| 57> H     -4.2808589400    -1.1412011300     1.9131803500
| 58> H     -1.9969273900    -1.1024252400     2.7774221900
| 59> *
| 60> 
| 61>                          ****END OF INPUT****
================================================================================

                       ****************************
                       * Single Point Calculation *
                       ****************************

---------------------------------
CARTESIAN COORDINATES (ANGSTROEM)
---------------------------------
  C      8.402221   -0.138959   -1.527280
  O      7.110628    0.189183   -2.004358
  C      6.060161    0.131716   -1.152378
  C      6.132901   -0.242155    0.188348
  C      4.989437   -0.257944    0.960534
  C      3.744225    0.084666    0.429982
  C      3.682037    0.461901   -0.916199
  C      4.817374    0.486263   -1.690323
  C      2.568184    0.048292    1.299310
  O      2.832064   -0.015300    2.600211
  C      1.277484    0.063192    0.833470
  C      0.157696    0.006194    1.724887
  O      0.295657   -0.078522    2.964668
  C     -1.204080    0.018806    1.144223
  C     -1.519324    0.660011   -0.049787
  C     -2.815762    0.654444   -0.531566
  C     -3.842278    0.005424    0.147660
  C     -5.274996   -0.035327   -0.359124
  C     -5.676365   -1.499712   -0.593610
  C     -6.198738    0.594463    0.694451
  C     -5.460095    0.728156   -1.674071
  C     -3.518329   -0.628245    1.347230
  C     -2.232067   -0.614406    1.842014
  H      8.707761    0.530977   -0.718842
  H      8.446000   -1.176852   -1.185042
  H      9.065721   -0.007919   -2.380053
  H      7.072382   -0.520750    0.637188
  H      5.049661   -0.548130    1.997890
  H      2.743851    0.757786   -1.355916
  H      4.778273    0.782730   -2.726459
  H      1.954761   -0.055087    3.081406
  H      1.089007    0.068187   -0.223111
  H     -0.758607    1.196999   -0.595905
  H     -3.014398    1.172484   -1.455265
  H     -5.011449   -1.960602   -1.321255
  H     -5.627832   -2.076242    0.325923
  H     -6.693908   -1.549811   -0.974631
  H     -7.227038    0.585630    0.339956
  H     -6.158793    0.051572    1.634495
  H     -5.906837    1.625585    0.883286
  H     -4.854659    0.295364   -2.466842
  H     -6.502751    0.671778   -1.979148
  H     -5.201392    1.777786   -1.556795
  H     -4.280859   -1.141201    1.913180
  H     -1.996927   -1.102425    2.777422

----------------------------
CARTESIAN COORDINATES (A.U.)
----------------------------
  NO LB      ZA    FRAG     MASS         X           Y           Z
   0 C     6.0000    0    12.011   15.877897   -0.262594   -2.886140
   1 O     8.0000    0    15.999   13.437140    0.357504   -3.787688
   2 C     6.0000    0    12.011   11.452044    0.248908   -2.177679
   3 C     6.0000    0    12.011   11.589504   -0.457606    0.355926
   4 C     6.0000    0    12.011    9.428669   -0.487444    1.815146
   5 C     6.0000    0    12.011    7.075560    0.159995    0.812549
   6 C     6.0000    0    12.011    6.958042    0.872867   -1.731365
   7 C     6.0000    0    12.011    9.103518    0.918904   -3.194248
   8 C     6.0000    0    12.011    4.853164    0.091259    2.455340
   9 O     8.0000    0    15.999    5.351826   -0.028913    4.913688
  10 C     6.0000    0    12.011    2.414094    0.119416    1.575030
  11 C     6.0000    0    12.011    0.298002    0.011706    3.259564
  12 O     8.0000    0    15.999    0.558711   -0.148385    5.602411
  13 C     6.0000    0    12.011   -2.275382    0.035539    2.162267
  14 C     6.0000    0    12.011   -2.871106    1.247241   -0.094085
  15 C     6.0000    0    12.011   -5.321019    1.236719   -1.004515
  16 C     6.0000    0    12.011   -7.260852    0.010249    0.279036
  17 C     6.0000    0    12.011   -9.968299   -0.066758   -0.678646
  18 C     6.0000    0    12.011  -10.726775   -2.834046   -1.121760
  19 C     6.0000    0    12.011  -11.713918    1.123373    1.312322
  20 C     6.0000    0    12.011  -10.318083    1.376015   -3.163535
  21 C     6.0000    0    12.011   -6.648678   -1.187211    2.545895
  22 C     6.0000    0    12.011   -4.217996   -1.161059    3.480902
  23 H     1.0000    0     1.008   16.455284    1.003402   -1.358414
  24 H     1.0000    0     1.008   15.960628   -2.223928   -2.239406
  25 H     1.0000    0     1.008   17.131729   -0.014965   -4.497649
  26 H     1.0000    0     1.008   13.364866   -0.984075    1.204111
  27 H     1.0000    0     1.008    9.542477   -1.035815    3.775465
  28 H     1.0000    0     1.008    5.185127    1.432007   -2.562310
  29 H     1.0000    0     1.008    9.029627    1.479145   -5.152261
  30 H     1.0000    0     1.008    3.693962   -0.104100    5.823014
  31 H     1.0000    0     1.008    2.057925    0.128856   -0.421619
  32 H     1.0000    0     1.008   -1.433559    2.261999   -1.126096
  33 H     1.0000    0     1.008   -5.696387    2.215674   -2.750053
  34 H     1.0000    0     1.008   -9.470266   -3.705000   -2.496811
  35 H     1.0000    0     1.008  -10.635061   -3.923528    0.615905
  36 H     1.0000    0     1.008  -12.649653   -2.928719   -1.841786
  37 H     1.0000    0     1.008  -13.657123    1.106680    0.642423
  38 H     1.0000    0     1.008  -11.638433    0.097458    3.088749
  39 H     1.0000    0     1.008  -11.162305    3.071910    1.669169
  40 H     1.0000    0     1.008   -9.173976    0.558156   -4.661655
  41 H     1.0000    0     1.008  -12.288418    1.269476   -3.740047
  42 H     1.0000    0     1.008   -9.829207    3.359528   -2.941916
  43 H     1.0000    0     1.008   -8.089651   -2.156558    3.615387
  44 H     1.0000    0     1.008   -3.773646   -2.083282    5.248567

--------------------------------
INTERNAL COORDINATES (ANGSTROEM)
--------------------------------
 C      0   0   0     0.000000000000     0.00000000     0.00000000
 O      1   0   0     1.415448146317     0.00000000     0.00000000
 C      2   1   0     1.353755866922   119.08478824     0.00000000
 C      3   2   1     1.393777991682   125.18934760   359.43606265
 C      4   3   2     1.379866568430   119.87634153   179.77792210
 C      5   4   3     1.396215707352   121.57397177     0.46400218
 C      6   5   4     1.399420611368   118.11974056   359.38345102
 C      7   6   5     1.374355016980   120.65738307     0.30101941
 C      6   5   4     1.462917212072   119.01566632   179.98201825
 O      9   6   5     1.328917543594   115.04155281    14.76463484
 C      9   6   5     1.372273961129   123.65007784   195.43035081
 C     11   9   6     1.432409636572   121.57350617   179.06608256
 O     12  11   9     1.250306867447   122.24341448   358.97755764
 C     12  11   9     1.480461192977   118.33692317   180.34777175
 C     14  12  11     1.391467724518   123.29010354   329.78218003
 C     15  14  12     1.383074126450   120.62493462   181.01702190
 C     16  15  14     1.391513078727   121.55615622   359.52354669
 C     17  16  15     1.520254273714   123.02507990   180.71673282
 C     18  17  16     1.536393800847   108.82169765   119.18142170
 C     18  17  16     1.536214281523   109.09135869   238.93185420
 C     18  17  16     1.531748006129   112.74897726   359.12080947
 C     17  16  15     1.394792820004   117.41049022     0.80657497
 C     22  17  16     1.378213733632   121.39628393   359.94788698
 H      1   2   3     1.093499300828   111.23051232   299.28724578
 H      1   2   3     1.093739465572   111.22194328    62.02710688
 H      1   2   3     1.088404913822   105.32366451   180.64944029
 H      4   3   2     1.077820706846   121.02475854   359.81441389
 H      5   4   3     1.078861508965   119.66310352   179.98557605
 H      7   6   5     1.077539516431   120.34877179   181.57721361
 H      8   7   6     1.078424534084   121.07082252   180.44652426
 H     10   9   6     1.001395602840   107.35754538   181.23822927
 H     11   9   6     1.073271826233   119.96081771     2.17684432
 H     15  14  12     1.079485723145   120.24440977   358.98782699
 H     16  15  14     1.077516499185   118.00029845   179.40235472
 H     19  18  17     1.088118071390   110.25127303   300.69344745
 H     19  18  17     1.086407462326   111.40480553    60.96015673
 H     19  18  17     1.087695150923   109.98388614   181.04228430
 H     20  18  17     1.087725107356   109.97535825   179.19522161
 H     20  18  17     1.086282320214   111.49991616   299.24939695
 H     20  18  17     1.088152716800   110.25434803    59.55086756
 H     21  18  17     1.087357631964   111.11334504    61.51384625
 H     21  18  17     1.087833986607   109.31378490   180.58110346
 H     21  18  17     1.087383833544   111.08773482   299.61232614
 H     22  17  16     1.079294220181   120.18587359   179.71193709
 H     23  22  17     1.080944732717   120.60746036   179.46662155

---------------------------
INTERNAL COORDINATES (A.U.)
---------------------------
 C      0   0   0     0.000000000000     0.00000000     0.00000000
 O      1   0   0     2.674809353305     0.00000000     0.00000000
 C      2   1   0     2.558227840673   119.08478824     0.00000000
 C      3   2   1     2.633858695765   125.18934760   359.43606265
 C      4   3   2     2.607569915687   119.87634153   179.77792210
 C      5   4   3     2.638465310774   121.57397177     0.46400218
 C      6   5   4     2.644521701650   118.11974056   359.38345102
 C      7   6   5     2.597154592872   120.65738307     0.30101941
 C      6   5   4     2.764512887417   119.01566632   179.98201825
 O      9   6   5     2.511290211956   115.04155281    14.76463484
 C      9   6   5     2.593221967246   123.65007784   195.43035081
 C     11   9   6     2.706861924710   121.57350617   179.06608256
 O     12  11   9     2.362737562835   122.24341448   358.97755764
 C     12  11   9     2.797666206625   118.33692317   180.34777175
 C     14  12  11     2.629492923530   123.29010354   329.78218003
 C     15  14  12     2.613631321903   120.62493462   181.01702190
 C     16  15  14     2.629578630564   121.55615622   359.52354669
 C     17  16  15     2.872864231244   123.02507990   180.71673282
 C     18  17  16     2.903363517456   108.82169765   119.18142170
 C     18  17  16     2.903024275098   109.09135869   238.93185420
 C     18  17  16     2.894584237764   112.74897726   359.12080947
 C     17  16  15     2.635776443368   117.41049022     0.80657497
 C     22  17  16     2.604446510574   121.39628393   359.94788698
 H      1   2   3     2.066414206200   111.23051232   299.28724578
 H      1   2   3     2.066868051792   111.22194328    62.02710688
 H      1   2   3     2.056787209937   105.32366451   180.64944029
 H      4   3   2     2.036785957408   121.02475854   359.81441389
 H      5   4   3     2.038752788374   119.66310352   179.98557605
 H      7   6   5     2.036254584532   120.34877179   181.57721361
 H      8   7   6     2.037927025521   121.07082252   180.44652426
 H     10   9   6     1.892363441080   107.35754538   181.23822927
 H     11   9   6     2.028189818834   119.96081771     2.17684432
 H     15  14  12     2.039932382222   120.24440977   358.98782699
 H     16  15  14     2.036211088241   118.00029845   179.40235472
 H     19  18  17     2.056245156298   110.25127303   300.69344745
 H     19  18  17     2.053012573645   111.40480553    60.96015673
 H     19  18  17     2.055445952439   109.98388614   181.04228430
 H     20  18  17     2.055502561893   109.97535825   179.19522161
 H     20  18  17     2.052776089324   111.49991616   299.24939695
 H     20  18  17     2.056310626634   110.25434803    59.55086756
 H     21  18  17     2.054808134042   111.11334504    61.51384625
 H     21  18  17     2.055708313860   109.31378490   180.58110346
 H     21  18  17     2.054857647851   111.08773482   299.61232614
 H     22  17  16     2.039570494066   120.18587359   179.71193709
 H     23  22  17     2.042689510740   120.60746036   179.46662155

---------------------
BASIS SET INFORMATION
---------------------
There are 3 groups of distinct atoms

 Group   1 Type C   : 7s4p1d contracted to 3s2p1d pattern {511/31/1}
 Group   2 Type O   : 7s4p1d contracted to 3s2p1d pattern {511/31/1}
 Group   3 Type H   : 4s1p contracted to 2s1p pattern {31/1}

Atom   0C    basis set group =>   1
Atom   1O    basis set group =>   2
Atom   2C    basis set group =>   1
Atom   3C    basis set group =>   1
Atom   4C    basis set group =>   1
Atom   5C    basis set group =>   1
Atom   6C    basis set group =>   1
Atom   7C    basis set group =>   1
Atom   8C    basis set group =>   1
Atom   9O    basis set group =>   2
Atom  10C    basis set group =>   1
Atom  11C    basis set group =>   1
Atom  12O    basis set group =>   2
Atom  13C    basis set group =>   1
Atom  14C    basis set group =>   1
Atom  15C    basis set group =>   1
Atom  16C    basis set group =>   1
Atom  17C    basis set group =>   1
Atom  18C    basis set group =>   1
Atom  19C    basis set group =>   1
Atom  20C    basis set group =>   1
Atom  21C    basis set group =>   1
Atom  22C    basis set group =>   1
Atom  23H    basis set group =>   3
Atom  24H    basis set group =>   3
Atom  25H    basis set group =>   3
Atom  26H    basis set group =>   3
Atom  27H    basis set group =>   3
Atom  28H    basis set group =>   3
Atom  29H    basis set group =>   3
Atom  30H    basis set group =>   3
Atom  31H    basis set group =>   3
Atom  32H    basis set group =>   3
Atom  33H    basis set group =>   3
Atom  34H    basis set group =>   3
Atom  35H    basis set group =>   3
Atom  36H    basis set group =>   3
Atom  37H    basis set group =>   3
Atom  38H    basis set group =>   3
Atom  39H    basis set group =>   3
Atom  40H    basis set group =>   3
Atom  41H    basis set group =>   3
Atom  42H    basis set group =>   3
Atom  43H    basis set group =>   3
Atom  44H    basis set group =>   3
---------------------------------
AUXILIARY/J BASIS SET INFORMATION
---------------------------------
There are 3 groups of distinct atoms

 Group   1 Type C   : 12s5p4d2f1g contracted to 6s4p3d1f1g pattern {711111/2111/211/2/1}
 Group   2 Type O   : 12s5p4d2f1g contracted to 6s4p3d1f1g pattern {711111/2111/211/2/1}
 Group   3 Type H   : 5s2p1d contracted to 3s1p1d pattern {311/2/1}

Atom   0C    basis set group =>   1
Atom   1O    basis set group =>   2
Atom   2C    basis set group =>   1
Atom   3C    basis set group =>   1
Atom   4C    basis set group =>   1
Atom   5C    basis set group =>   1
Atom   6C    basis set group =>   1
Atom   7C    basis set group =>   1
Atom   8C    basis set group =>   1
Atom   9O    basis set group =>   2
Atom  10C    basis set group =>   1
Atom  11C    basis set group =>   1
Atom  12O    basis set group =>   2
Atom  13C    basis set group =>   1
Atom  14C    basis set group =>   1
Atom  15C    basis set group =>   1
Atom  16C    basis set group =>   1
Atom  17C    basis set group =>   1
Atom  18C    basis set group =>   1
Atom  19C    basis set group =>   1
Atom  20C    basis set group =>   1
Atom  21C    basis set group =>   1
Atom  22C    basis set group =>   1
Atom  23H    basis set group =>   3
Atom  24H    basis set group =>   3
Atom  25H    basis set group =>   3
Atom  26H    basis set group =>   3
Atom  27H    basis set group =>   3
Atom  28H    basis set group =>   3
Atom  29H    basis set group =>   3
Atom  30H    basis set group =>   3
Atom  31H    basis set group =>   3
Atom  32H    basis set group =>   3
Atom  33H    basis set group =>   3
Atom  34H    basis set group =>   3
Atom  35H    basis set group =>   3
Atom  36H    basis set group =>   3
Atom  37H    basis set group =>   3
Atom  38H    basis set group =>   3
Atom  39H    basis set group =>   3
Atom  40H    basis set group =>   3
Atom  41H    basis set group =>   3
Atom  42H    basis set group =>   3
Atom  43H    basis set group =>   3
Atom  44H    basis set group =>   3


           ************************************************************
           *        Program running with 4 parallel MPI-processes     *
           *              working on a common directory               *
           ************************************************************
------------------------------------------------------------------------------
                             ORCA STARTUP CALCULATIONS
                           -- RI-GTO INTEGRALS CHOSEN --
------------------------------------------------------------------------------
------------------------------------------------------------------------------
                   ___                                                        
                  /   \      - P O W E R E D   B Y -                         
                 /     \                                                     
                 |  |  |   _    _      __       _____    __    __             
                 |  |  |  | |  | |    /  \     |  _  \  |  |  /  |          
                  \  \/   | |  | |   /    \    | | | |  |  | /  /          
                 / \  \   | |__| |  /  /\  \   | |_| |  |  |/  /          
                |  |  |   |  __  | /  /__\  \  |    /   |      \           
                |  |  |   | |  | | |   __   |  |    \   |  |\   \          
                \     /   | |  | | |  |  |  |  | |\  \  |  | \   \       
                 \___/    |_|  |_| |__|  |__|  |_| \__\ |__|  \__/        
                                                                              
                      - O R C A' S   B I G   F R I E N D -                    
                                      &                                       
                       - I N T E G R A L  F E E D E R -                       
                                                                              
 v1 FN, 2020, v2 2021, v3 2022-2024                                           
------------------------------------------------------------------------------


----------------------
SHARK INTEGRAL PACKAGE
----------------------

Number of atoms                             ...     45
Number of basis functions                   ...    432
Number of shells                            ...    204
Maximum angular momentum                    ...      2
Integral batch strategy                     ... SHARK/LIBINT Hybrid
RI-J (if used) integral strategy            ... SPLIT-RIJ (Revised 2003 algorithm where possible)
Printlevel                                  ...      1
Contraction scheme used                     ... SEGMENTED contraction
Prescreening option                         ... SCHWARTZ
   Thresh                                   ... 2.500e-11
   Tcut                                     ... 2.500e-12
   Tpresel                                  ... 2.500e-12 
Coulomb Range Separation                    ... NOT USED
Exchange Range Separation                   ... NOT USED
Multipole approximations                    ... NOT USED
Finite Nucleus Model                        ... NOT USED
CABS basis                                  ... NOT available
Auxiliary Coulomb fitting basis             ... AVAILABLE
   # of basis functions in Aux-J            ...   1369
   # of shells in Aux-J                     ...    455
   Maximum angular momentum in Aux-J        ...      4
Auxiliary J/K fitting basis                 ... NOT available
Auxiliary Correlation fitting basis         ... NOT available
Auxiliary 'external' fitting basis          ... NOT available

Checking pre-screening integrals            ... done (  0.0 sec) Dimension = 204
   => SHARK Basis and OBASIS are compatible. Storing Pre-screening
Shell pair information
Shell pair cut-off parameter TPreSel        ...   2.5e-12
Total number of shell pairs                 ...     20910
Shell pairs after pre-screening             ...     12307
Total number of primitive shell pairs       ...     75056
Primitive shell pairs kept                  ...     29026
          la=0 lb=0:   3889 shell pairs
          la=1 lb=0:   4599 shell pairs
          la=1 lb=1:   1414 shell pairs
          la=2 lb=0:   1418 shell pairs
          la=2 lb=1:    852 shell pairs
          la=2 lb=2:    135 shell pairs

Checking whether 4 symmetric matrices of dimension 432 fit in memory
:Max Core in MB      =   2500.00
 MB in use           =     15.51
 MB left             =   2484.49
 MB needed           =      2.85
 Data fit in memory  = YES
Calculating RI/J V-Matrix + Cholesky decomp.... done (  0.1 sec)
Calculating Nuclear repulsion               ... done (  0.0 sec) ENN=   1741.886340299425 Eh

Diagonalization of the overlap matrix:
Smallest eigenvalue                        ... 2.457e-04
Time for diagonalization                   ...    0.020 sec
Threshold for overlap eigenvalues          ... 1.000e-07
Number of eigenvalues below threshold      ... 0
Time for construction of square roots      ...    0.014 sec
Total time needed                          ...    0.036 sec

-------------------
DFT GRID GENERATION
-------------------

General Integration Accuracy     IntAcc      ... 4.388
Radial Grid Type                 RadialGrid  ... OptM3 with GC (2021)
Angular Grid (max. ang.)         AngularGrid ... 4 (Lebedev-302)
Angular grid pruning method      GridPruning ... 4 (adaptive)
Weight generation scheme         WeightScheme... mBecke (2022)
Basis function cutoff            BFCut       ... 1.0000e-11
Integration weight cutoff        WCut        ... 1.0000e-14
Partially contracted basis set               ... off
Rotationally invariant grid construction     ... off
Angular grids for H and He will be reduced by one unit

Total number of grid points                  ...   207529
Total number of batches                      ...     3265
Average number of points per batch           ...       63
Average number of grid points per atom       ...     4612

--------------------
COSX GRID GENERATION
--------------------

GRIDX 1
-------
General Integration Accuracy     IntAcc      ... 3.816
Radial Grid Type                 RadialGrid  ... OptM3 with GC (2021)
Angular Grid (max. ang.)         AngularGrid ... 1 (Lebedev-50)
Angular grid pruning method      GridPruning ... 4 (adaptive)
Weight generation scheme         WeightScheme... mBecke (2022)
Basis function cutoff            BFCut       ... 1.0000e-11
Integration weight cutoff        WCut        ... 1.0000e-14
Partially contracted basis set               ... on
Rotationally invariant grid construction     ... off
Angular grids for H and He will be reduced by one unit

Total number of grid points                  ...    26469
Total number of batches                      ...      229
Average number of points per batch           ...      115
Average number of grid points per atom       ...      588
UseSFitting                                  ... on

GRIDX 2
-------
General Integration Accuracy     IntAcc      ... 4.020
Radial Grid Type                 RadialGrid  ... OptM3 with GC (2021)
Angular Grid (max. ang.)         AngularGrid ... 2 (Lebedev-110)
Angular grid pruning method      GridPruning ... 4 (adaptive)
Weight generation scheme         WeightScheme... mBecke (2022)
Basis function cutoff            BFCut       ... 1.0000e-11
Integration weight cutoff        WCut        ... 1.0000e-14
Partially contracted basis set               ... on
Rotationally invariant grid construction     ... off
Angular grids for H and He will be reduced by one unit

Total number of grid points                  ...    56770
Total number of batches                      ...      469
Average number of points per batch           ...      121
Average number of grid points per atom       ...     1262
UseSFitting                                  ... on

GRIDX 3
-------
General Integration Accuracy     IntAcc      ... 4.338
Radial Grid Type                 RadialGrid  ... OptM3 with GC (2021)
Angular Grid (max. ang.)         AngularGrid ... 3 (Lebedev-194)
Angular grid pruning method      GridPruning ... 4 (adaptive)
Weight generation scheme         WeightScheme... mBecke (2022)
Basis function cutoff            BFCut       ... 1.0000e-11
Integration weight cutoff        WCut        ... 1.0000e-14
Partially contracted basis set               ... on
Rotationally invariant grid construction     ... off
Angular grids for H and He will be reduced by one unit

Total number of grid points                  ...   123912
Total number of batches                      ...      993
Average number of points per batch           ...      124
Average number of grid points per atom       ...     2754
UseSFitting                                  ... on
Grids setup in   4.4 sec
Initializing property integral containers    ... done (  0.1 sec)

SHARK setup successfully completed in   4.9 seconds

Maximum memory used throughout the entire STARTUP-calculation: 58.0 MB


           ************************************************************
           *        Program running with 4 parallel MPI-processes     *
           *              working on a common directory               *
           ************************************************************
-------------------------------------------------------------------------------
                                 ORCA GUESS
                   Start orbitals & Density for SCF / CASSCF
-------------------------------------------------------------------------------

------------
SCF SETTINGS
------------
Hamiltonian:
 Density Functional     Method          .... DFT(GTOs)
 Exchange Functional    Exchange        .... B88
   X-Alpha parameter    XAlpha          ....  0.666667
   Becke's b parameter  XBeta           ....  0.004200
 Correlation Functional Correlation     .... LYP
 LDA part of GGA corr.  LDAOpt          .... VWN-5
 Gradients option       PostSCFGGA      .... off
 Hybrid DFT is turned on
   Fraction HF Exchange ScalHFX         ....  0.200000
   Scaling of DF-GGA-X  ScalDFX         ....  0.720000
   Scaling of DF-GGA-C  ScalDFC         ....  0.810000
   Scaling of DF-LDA-C  ScalLDAC        ....  1.000000
   Perturbative correction              ....  0.000000
   NL short-range parameter             ....  4.800000
 RI-approximation to the Coulomb term is turned on
   Number of AuxJ basis functions       .... 1369
   RIJ-COSX (HFX calculated with COS-X)).... on


General Settings:
 Integral files         IntName         .... td
 Hartree-Fock type      HFTyp           .... RHF
 Total Charge           Charge          ....    0
 Multiplicity           Mult            ....    1
 Number of Electrons    NEL             ....  166
 Basis Dimension        Dim             ....  432
 Nuclear Repulsion      ENuc            ....   1741.8863402994 Eh

Convergence Acceleration:
 AO-DIIS                CNVDIIS         .... on
   Start iteration      DIISMaxIt       ....    12
   Startup error        DIISStart       ....  0.200000
   # of expansion vecs  DIISMaxEq       ....     5
   Bias factor          DIISBfac        ....   1.050
   Max. coefficient     DIISMaxC        ....  10.000
 MO-DIIS                CNVKDIIS        .... off
 Trust-Rad. Augm. Hess. CNVTRAH         .... auto
   Auto Start mean grad. ratio tolernc. ....  1.125000
   Auto Start start iteration           ....    50
   Auto Start num. interpolation iter.  ....    10
   Max. Number of Micro iterations      ....    24
   Max. Number of Macro iterations      .... Maxiter - #DIIS iter
   Number of Davidson start vectors     ....     2
   Converg. threshold    (grad. norm)   ....   1.000e-05
   Grad. Scal. Fac. for Micro threshold ....   0.100
   Minimum threshold for Micro iter.    ....   1.000e-02
   NR start threshold (gradient norm)   ....   1.000e-04
   Initial trust radius                 ....   0.400
   Minimum AH scaling param. (alpha)    ....   1.000
   Maximum AH scaling param. (alpha)    .... 1000.000
   Quad. conv. algorithm                .... NR
   White noise on init. David. guess    .... on
   Maximum white noise                  ....   0.010
   Pseudo random numbers                .... off
   Inactive MOs                         .... canonical
   Orbital update algorithm             .... Taylor
   Preconditioner                       .... Diag
   Full preconditioner red. dimension   ....   250
 SOSCF                 CNVSOSCF           .... on
   Start iteration     SOSCFMaxIt         ....   150
   Startup grad/error  SOSCFStart         ....  0.003300
   Hessian update      SOSCFHessUp        .... L-BFGS
   Autom. constraints  SOSCFAutoConstrain .... off
 Level Shifting         CNVShift        .... on
   Level shift para.    LevelShift      ....    0.2500
   Turn off err/grad.   ShiftErr        ....    0.0010
 Zerner damping         CNVZerner       .... off
 Static damping         CNVDamp         .... on
   Fraction old density DampFac         ....    0.7000
   Max. Damping (<1)    DampMax         ....    0.9800
   Min. Damping (>=0)   DampMin         ....    0.0000
   Turn off err/grad.   DampErr         ....    0.1000

SCF Procedure:
 Maximum # iterations   MaxIter         ....   300
 SCF integral mode      SCFMode         .... Direct
   Integral package                     .... SHARK and LIBINT hybrid scheme
 Reset frequency        DirectResetFreq ....    20
 Integral Threshold     Thresh          ....  2.500e-11 Eh
 Primitive CutOff       TCut            ....  2.500e-12 Eh

Convergence Tolerance:
 Convergence Check Mode ConvCheckMode   .... Total+1el-Energy
 Convergence forced     ConvForced      .... 1
 Energy Change          TolE            ....  1.000e-08 Eh
 1-El. energy change                    ....  1.000e-05 Eh
 Orbital Gradient       TolG            ....  1.000e-05
 Orbital Rotation angle TolX            ....  1.000e-05
 DIIS Error             TolErr          ....  5.000e-07

------------------------------
INITIAL GUESS: MODEL POTENTIAL
------------------------------
Loading Hartree-Fock densities                     ... done
Calculating cut-offs                               ... done
Initializing the effective Hamiltonian             ... done
Setting up the integral package (SHARK)            ... done
Starting the Coulomb interaction                   ... done (   0.5 sec)
Making the grid                                    ... done (   0.6 sec)
Mapping shells                                     ... done
Starting the XC term evaluation                    ... done (   0.4 sec)
  promolecular density results
     # of electrons  =    165.992068860
     EX              =   -134.073088559
     EC              =     -5.607173471
     EX+EC           =   -139.680262031
Transforming the Hamiltonian                       ... done (   0.0 sec)
Diagonalizing the Hamiltonian                      ... done (   0.0 sec)
Back transforming the eigenvectors                 ... done (   0.0 sec)
Now organizing SCF variables                       ... done
                      ------------------
                      INITIAL GUESS DONE (   1.7 sec)
                      ------------------
             **** ENERGY FILE WAS UPDATED (td.en.tmp) ****
Finished Guess after   1.8 sec
Maximum memory used throughout the entire GUESS-calculation: 21.8 MB


           ************************************************************
           *        Program running with 4 parallel MPI-processes     *
           *              working on a common directory               *
           ************************************************************

-------------------------------------------------------------------------------------------
                                      ORCA LEAN-SCF
                              memory conserving SCF solver
-------------------------------------------------------------------------------------------

----------------------------------------D-I-I-S--------------------------------------------
Iteration    Energy (Eh)           Delta-E    RMSDP     MaxDP     DIISErr   Damp  Time(sec)
-------------------------------------------------------------------------------------------
               ***  Starting incremental Fock matrix formation  ***
    1    -999.1700671589003377     0.00e+00  4.80e-03  9.06e-02  2.47e-01  0.700  11.7
    2    -999.4202780656894447    -2.50e-01  3.32e-03  5.33e-02  9.84e-02  0.700   6.1
                               ***Turning on AO-DIIS***
    3    -999.5254257186031737    -1.05e-01  1.51e-03  2.20e-02  4.26e-02  0.700   5.6
    4    -999.5873684941591364    -6.19e-02  2.84e-03  3.58e-02  2.19e-02  0.000   5.4
    5    -999.7206572344700817    -1.33e-01  4.27e-04  6.93e-03  7.28e-03  0.000   5.6
                              *** Initializing SOSCF ***
---------------------------------------S-O-S-C-F--------------------------------------
Iteration    Energy (Eh)           Delta-E    RMSDP     MaxDP     MaxGrad    Time(sec)
--------------------------------------------------------------------------------------
    6    -999.7214387089268257    -7.81e-04  1.54e-04  3.12e-03  1.43e-03     5.0
               *** Restarting incremental Fock matrix formation ***
    7    -999.7213755332543315     6.32e-05  9.64e-05  1.46e-03  2.44e-04    11.3
    8    -999.7213760414795161    -5.08e-07  3.98e-05  8.15e-04  3.75e-04     8.1
    9    -999.7213824570733323    -6.42e-06  2.82e-05  6.55e-04  1.32e-04     6.8
   10    -999.7213822103547045     2.47e-07  1.35e-05  2.40e-04  9.61e-05     6.9
   11    -999.7213831576098073    -9.47e-07  5.97e-06  1.31e-04  1.68e-05     5.8
   12    -999.7213831436044984     1.40e-08  3.61e-06  9.51e-05  2.23e-05     5.3
   13    -999.7213831966703310    -5.31e-08  1.13e-06  2.17e-05  4.22e-06     4.8
   14    -999.7213832007089422    -4.04e-09  6.69e-07  1.67e-05  6.03e-06     4.0
                 **** Energy Check signals convergence ****

               *****************************************************
               *                     SUCCESS                       *
               *           SCF CONVERGED AFTER  14 CYCLES          *
               *****************************************************

Recomputing exchange energy using gridx3       ... done (   18.474 sec)
Old exchange energy                            :    -27.234930024 Eh
New exchange energy                            :    -27.234924177 Eh
Exchange energy change after final integration :      0.000005847 Eh
Total energy after final integration           :   -999.721377361 Eh
             **** ENERGY FILE WAS UPDATED (td.en.tmp) ****

----------------
TOTAL SCF ENERGY
----------------

Total Energy       :       -999.72137736138041 Eh          -27203.80169 eV

Components:
Nuclear Repulsion  :       1741.88634029942500 Eh           47399.13705 eV
Electronic Energy  :      -2741.60772350804382 Eh          -74602.93890 eV
One Electron Energy:      -4816.53826285030664 Eh         -131064.66933 eV
Two Electron Energy:       2074.93053934226282 Eh           56461.73043 eV

Virial components:
Potential Energy   :      -1990.13830230132453 Eh          -54154.41636 eV
Kinetic Energy     :        990.41692493994401 Eh           26950.61467 eV
Virial Ratio       :          2.00939448043257

DFT components:
N(Alpha)           :       82.999901042327 electrons
N(Beta)            :       82.999901042327 electrons
N(Total)           :      165.999802084653 electrons
E(X)               :     -108.149951565659 Eh       
E(C)               :       -6.605193768819 Eh       
E(XC)              :     -114.755145334477 Eh       

---------------
SCF CONVERGENCE
---------------

  Last Energy change         ...    4.0386e-09  Tolerance :   1.0000e-08
  Last MAX-Density change    ...    1.6683e-05  Tolerance :   1.0000e-07
  Last RMS-Density change    ...    6.6863e-07  Tolerance :   5.0000e-09
  Last DIIS Error            ...    1.4341e-03  Tolerance :   5.0000e-07
  Last Orbital Gradient      ...    6.0289e-06  Tolerance :   1.0000e-05
  Last Orbital Rotation      ...    7.8438e-06  Tolerance :   1.0000e-05


----------------
ORBITAL ENERGIES
----------------

  NO   OCC          E(Eh)            E(eV) 
   0   2.0000     -19.172655      -521.7145 
   1   2.0000     -19.154762      -521.2276 
   2   2.0000     -19.106744      -519.9209 
   3   2.0000     -10.264437      -279.3095 
   4   2.0000     -10.256400      -279.0908 
   5   2.0000     -10.256223      -279.0860 
   6   2.0000     -10.249676      -278.9079 
   7   2.0000     -10.198226      -277.5078 
   8   2.0000     -10.197569      -277.4900 
   9   2.0000     -10.194467      -277.4056 
  10   2.0000     -10.193790      -277.3871 
  11   2.0000     -10.191527      -277.3256 
  12   2.0000     -10.190747      -277.3043 
  13   2.0000     -10.188860      -277.2530 
  14   2.0000     -10.188080      -277.2317 
  15   2.0000     -10.183621      -277.1104 
  16   2.0000     -10.182103      -277.0691 
  17   2.0000     -10.181988      -277.0660 
  18   2.0000     -10.180728      -277.0317 
  19   2.0000     -10.173163      -276.8258 
  20   2.0000     -10.173124      -276.8248 
  21   2.0000     -10.172729      -276.8140 
  22   2.0000     -10.166496      -276.6444 
  23   2.0000      -1.067801       -29.0563 
  24   2.0000      -1.055730       -28.7279 
  25   2.0000      -1.003014       -27.2934 
  26   2.0000      -0.862291       -23.4641 
  27   2.0000      -0.860604       -23.4182 
  28   2.0000      -0.815675       -22.1956 
  29   2.0000      -0.785945       -21.3867 
  30   2.0000      -0.760210       -20.6864 
  31   2.0000      -0.751162       -20.4402 
  32   2.0000      -0.740808       -20.1584 
  33   2.0000      -0.731498       -19.9051 
  34   2.0000      -0.706561       -19.2265 
  35   2.0000      -0.682022       -18.5588 
  36   2.0000      -0.681006       -18.5311 
  37   2.0000      -0.646199       -17.5840 
  38   2.0000      -0.627576       -17.0772 
  39   2.0000      -0.615902       -16.7595 
  40   2.0000      -0.598618       -16.2892 
  41   2.0000      -0.578994       -15.7552 
  42   2.0000      -0.565350       -15.3840 
  43   2.0000      -0.548134       -14.9155 
  44   2.0000      -0.547032       -14.8855 
  45   2.0000      -0.515375       -14.0241 
  46   2.0000      -0.497445       -13.5362 
  47   2.0000      -0.486073       -13.2267 
  48   2.0000      -0.481497       -13.1022 
  49   2.0000      -0.476609       -12.9692 
  50   2.0000      -0.470546       -12.8042 
  51   2.0000      -0.453711       -12.3461 
  52   2.0000      -0.449676       -12.2363 
  53   2.0000      -0.443706       -12.0739 
  54   2.0000      -0.442694       -12.0463 
  55   2.0000      -0.436618       -11.8810 
  56   2.0000      -0.429931       -11.6990 
  57   2.0000      -0.427052       -11.6207 
  58   2.0000      -0.421759       -11.4766 
  59   2.0000      -0.418993       -11.4014 
  60   2.0000      -0.417031       -11.3480 
  61   2.0000      -0.399909       -10.8821 
  62   2.0000      -0.392242       -10.6734 
  63   2.0000      -0.391706       -10.6589 
  64   2.0000      -0.386359       -10.5134 
  65   2.0000      -0.379854       -10.3363 
  66   2.0000      -0.376955       -10.2575 
  67   2.0000      -0.373194       -10.1551 
  68   2.0000      -0.367920       -10.0116 
  69   2.0000      -0.356115        -9.6904 
  70   2.0000      -0.353824        -9.6280 
  71   2.0000      -0.349487        -9.5100 
  72   2.0000      -0.333177        -9.0662 
  73   2.0000      -0.332732        -9.0541 
  74   2.0000      -0.330751        -9.0002 
  75   2.0000      -0.327442        -8.9102 
  76   2.0000      -0.318049        -8.6545 
  77   2.0000      -0.268774        -7.3137 
  78   2.0000      -0.257310        -7.0018 
  79   2.0000      -0.254717        -6.9312 
  80   2.0000      -0.250139        -6.8066 
  81   2.0000      -0.243671        -6.6306 
  82   2.0000      -0.216475        -5.8906 
  83   0.0000      -0.066078        -1.7981 
  84   0.0000      -0.017761        -0.4833 
  85   0.0000      -0.013003        -0.3538 
  86   0.0000      -0.004568        -0.1243 
  87   0.0000       0.037316         1.0154 
  88   0.0000       0.053496         1.4557 
  89   0.0000       0.058836         1.6010 
  90   0.0000       0.063902         1.7389 
  91   0.0000       0.088727         2.4144 
  92   0.0000       0.089373         2.4320 
  93   0.0000       0.097587         2.6555 
*Only the first 10 virtual orbitals were printed.

                    ********************************
                    * MULLIKEN POPULATION ANALYSIS *
                    ********************************

-----------------------
MULLIKEN ATOMIC CHARGES
-----------------------
   0 C :    0.193604
   1 O :   -0.309645
   2 C :    0.244376
   3 C :   -0.071468
   4 C :    0.005252
   5 C :    0.058155
   6 C :    0.001912
   7 C :   -0.005370
   8 C :    0.183733
   9 O :   -0.175328
  10 C :   -0.181838
  11 C :    0.183131
  12 O :   -0.318532
  13 C :    0.046822
  14 C :    0.007476
  15 C :   -0.024788
  16 C :    0.121406
  17 C :   -0.279134
  18 C :    0.104963
  19 C :    0.103986
  20 C :    0.119989
  21 C :   -0.032944
  22 C :    0.015595
  23 H :    0.022149
  24 H :    0.022038
  25 H :    0.034034
  26 H :   -0.036279
  27 H :   -0.012219
  28 H :   -0.030110
  29 H :   -0.028201
  30 H :    0.196754
  31 H :   -0.022810
  32 H :   -0.038155
  33 H :   -0.042485
  34 H :    0.003996
  35 H :   -0.001791
  36 H :   -0.003607
  37 H :   -0.003902
  38 H :   -0.001508
  39 H :    0.005151
  40 H :    0.002106
  41 H :   -0.003810
  42 H :    0.002818
  43 H :   -0.032123
  44 H :   -0.023401
Sum of atomic charges:   -0.0000000

--------------------------------
MULLIKEN REDUCED ORBITAL CHARGES
--------------------------------
  0 C s       :     2.995419  s :     2.995419
      pz      :     0.998955  p :     2.757461
      px      :     0.754121
      py      :     1.004385
      dz2     :     0.006360  d :     0.053516
      dxz     :     0.014560
      dyz     :     0.007460
      dx2y2   :     0.015588
      dxy     :     0.009548

  1 O s       :     3.732165  s :     3.732165
      pz      :     1.607454  p :     4.560545
      px      :     1.190214
      py      :     1.762877
      dz2     :     0.002735  d :     0.016935
      dxz     :     0.006728
      dyz     :     0.002115
      dx2y2   :     0.002569
      dxy     :     0.002790

  2 C s       :     2.936121  s :     2.936121
      pz      :     0.919119  p :     2.743742
      px      :     0.866936
      py      :     0.957687
      dz2     :     0.016190  d :     0.075760
      dxz     :     0.024551
      dyz     :     0.011008
      dx2y2   :     0.010808
      dxy     :     0.013203

  3 C s       :     3.242185  s :     3.242185
      pz      :     0.929493  p :     2.795638
      px      :     0.820305
      py      :     1.045840
      dz2     :     0.010043  d :     0.033644
      dxz     :     0.009338
      dyz     :     0.005484
      dx2y2   :     0.004804
      dxy     :     0.003975

  4 C s       :     3.254596  s :     3.254596
      pz      :     0.815072  p :     2.703886
      px      :     0.953360
      py      :     0.935454
      dz2     :     0.008782  d :     0.036266
      dxz     :     0.010345
      dyz     :     0.003270
      dx2y2   :     0.006189
      dxy     :     0.007680

  5 C s       :     3.064986  s :     3.064986
      pz      :     0.902378  p :     2.836712
      px      :     0.899861
      py      :     1.034473
      dz2     :     0.009218  d :     0.040146
      dxz     :     0.013462
      dyz     :     0.005810
      dx2y2   :     0.005884
      dxy     :     0.005772

  6 C s       :     3.225824  s :     3.225824
      pz      :     0.959288  p :     2.735712
      px      :     0.828299
      py      :     0.948125
      dz2     :     0.009733  d :     0.036552
      dxz     :     0.011107
      dyz     :     0.006445
      dx2y2   :     0.004639
      dxy     :     0.004628

  7 C s       :     3.239839  s :     3.239839
      pz      :     0.792199  p :     2.732210
      px      :     0.926723
      py      :     1.013288
      dz2     :     0.008513  d :     0.033321
      dxz     :     0.009455
      dyz     :     0.003194
      dx2y2   :     0.005756
      dxy     :     0.006403

  8 C s       :     3.081307  s :     3.081307
      pz      :     0.837606  p :     2.653219
      px      :     0.946354
      py      :     0.869259
      dz2     :     0.023797  d :     0.081741
      dxz     :     0.025005
      dyz     :     0.016720
      dx2y2   :     0.005923
      dxy     :     0.010296

  9 O s       :     3.665522  s :     3.665522
      pz      :     1.254063  p :     4.495655
      px      :     1.516137
      py      :     1.725455
      dz2     :     0.004467  d :     0.014150
      dxz     :     0.004151
      dyz     :     0.002375
      dx2y2   :     0.002288
      dxy     :     0.000870

 10 C s       :     3.207533  s :     3.207533
      pz      :     0.837371  p :     2.946305
      px      :     0.923953
      py      :     1.184981
      dz2     :     0.007327  d :     0.028000
      dxz     :     0.009660
      dyz     :     0.001982
      dx2y2   :     0.005364
      dxy     :     0.003666

 11 C s       :     3.081437  s :     3.081437
      pz      :     0.880923  p :     2.642719
      px      :     0.946652
      py      :     0.815144
      dz2     :     0.024078  d :     0.092713
      dxz     :     0.036469
      dyz     :     0.019913
      dx2y2   :     0.005640
      dxy     :     0.006613

 12 O s       :     3.762549  s :     3.762549
      pz      :     1.331607  p :     4.540347
      px      :     1.761014
      py      :     1.447726
      dz2     :     0.007344  d :     0.015636
      dxz     :     0.003248
      dyz     :     0.004729
      dx2y2   :     0.000258
      dxy     :     0.000057

 13 C s       :     3.070402  s :     3.070402
      pz      :     0.926402  p :     2.842727
      px      :     0.924341
      py      :     0.991984
      dz2     :     0.009145  d :     0.040050
      dxz     :     0.011051
      dyz     :     0.005940
      dx2y2   :     0.007848
      dxy     :     0.006065

 14 C s       :     3.223624  s :     3.223624
      pz      :     0.942349  p :     2.732688
      px      :     0.864132
      py      :     0.926207
      dz2     :     0.007743  d :     0.036212
      dxz     :     0.010508
      dyz     :     0.005288
      dx2y2   :     0.005436
      dxy     :     0.007238

 15 C s       :     3.236748  s :     3.236748
      pz      :     0.853097  p :     2.752652
      px      :     0.929534
      py      :     0.970022
      dz2     :     0.006835  d :     0.035388
      dxz     :     0.009319
      dyz     :     0.004462
      dx2y2   :     0.007242
      dxy     :     0.007530

 16 C s       :     3.059202  s :     3.059202
      pz      :     0.926694  p :     2.776722
      px      :     0.918211
      py      :     0.931818
      dz2     :     0.009341  d :     0.042669
      dxz     :     0.011382
      dyz     :     0.006090
      dx2y2   :     0.007925
      dxy     :     0.007930

 17 C s       :     3.201110  s :     3.201110
      pz      :     1.019759  p :     3.025723
      px      :     0.983605
      py      :     1.022358
      dz2     :     0.010242  d :     0.052301
      dxz     :     0.010408
      dyz     :     0.010859
      dx2y2   :     0.012675
      dxy     :     0.008117

 18 C s       :     2.954694  s :     2.954694
      pz      :     0.989275  p :     2.911108
      px      :     0.976444
      py      :     0.945389
      dz2     :     0.004096  d :     0.029236
      dxz     :     0.005294
      dyz     :     0.008046
      dx2y2   :     0.007793
      dxy     :     0.004006

 19 C s       :     2.955156  s :     2.955156
      pz      :     0.966184  p :     2.911655
      px      :     0.962917
      py      :     0.982554
      dz2     :     0.006695  d :     0.029202
      dxz     :     0.004822
      dyz     :     0.006077
      dx2y2   :     0.008957
      dxy     :     0.002651

 20 C s       :     2.923633  s :     2.923633
      pz      :     0.974611  p :     2.927335
      px      :     0.973618
      py      :     0.979106
      dz2     :     0.006500  d :     0.029043
      dxz     :     0.006375
      dyz     :     0.005325
      dx2y2   :     0.008449
      dxy     :     0.002393

 21 C s       :     3.241562  s :     3.241562
      pz      :     0.933193  p :     2.755878
      px      :     0.867102
      py      :     0.955583
      dz2     :     0.007405  d :     0.035505
      dxz     :     0.010719
      dyz     :     0.005055
      dx2y2   :     0.005496
      dxy     :     0.006830

 22 C s       :     3.249779  s :     3.249779
      pz      :     0.832991  p :     2.698672
      px      :     0.926114
      py      :     0.939566
      dz2     :     0.006766  d :     0.035955
      dxz     :     0.010106
      dyz     :     0.004217
      dx2y2   :     0.007051
      dxy     :     0.007815

 23 H s       :     0.955052  s :     0.955052
      pz      :     0.010315  p :     0.022800
      px      :     0.003797
      py      :     0.008688

 24 H s       :     0.955183  s :     0.955183
      pz      :     0.005966  p :     0.022779
      px      :     0.002721
      py      :     0.014091

 25 H s       :     0.944147  s :     0.944147
      pz      :     0.010727  p :     0.021819
      px      :     0.005973
      py      :     0.005119

 26 H s       :     1.012291  s :     1.012291
      pz      :     0.005718  p :     0.023988
      px      :     0.012215
      py      :     0.006055

 27 H s       :     0.988274  s :     0.988274
      pz      :     0.015057  p :     0.023944
      px      :     0.003713
      py      :     0.005174

 28 H s       :     1.006362  s :     1.006362
      pz      :     0.005621  p :     0.023748
      px      :     0.012543
      py      :     0.005584

 29 H s       :     1.004613  s :     1.004613
      pz      :     0.014422  p :     0.023588
      px      :     0.003503
      py      :     0.005664

 30 H s       :     0.725643  s :     0.725643
      pz      :     0.019115  p :     0.077604
      px      :     0.044109
      py      :     0.014379

 31 H s       :     0.998103  s :     0.998103
      pz      :     0.014480  p :     0.024708
      px      :     0.004074
      py      :     0.006154

 32 H s       :     1.014537  s :     1.014537
      pz      :     0.006669  p :     0.023618
      px      :     0.009513
      py      :     0.007436

 33 H s       :     1.018572  s :     1.018572
      pz      :     0.012317  p :     0.023913
      px      :     0.004353
      py      :     0.007243

 34 H s       :     0.972340  s :     0.972340
      pz      :     0.009195  p :     0.023664
      px      :     0.008485
      py      :     0.005984

 35 H s       :     0.977810  s :     0.977810
      pz      :     0.011521  p :     0.023981
      px      :     0.005417
      py      :     0.007042

 36 H s       :     0.979773  s :     0.979773
      pz      :     0.006498  p :     0.023833
      px      :     0.013100
      py      :     0.004235

 37 H s       :     0.980062  s :     0.980062
      pz      :     0.005553  p :     0.023839
      px      :     0.013128
      py      :     0.005158

 38 H s       :     0.977472  s :     0.977472
      pz      :     0.011817  p :     0.024036
      px      :     0.005042
      py      :     0.007177

 39 H s       :     0.971171  s :     0.971171
      pz      :     0.005106  p :     0.023678
      px      :     0.005347
      py      :     0.013225

 40 H s       :     0.973985  s :     0.973985
      pz      :     0.009611  p :     0.023909
      px      :     0.008064
      py      :     0.006234

 41 H s       :     0.980067  s :     0.980067
      pz      :     0.005248  p :     0.023743
      px      :     0.013436
      py      :     0.005060

 42 H s       :     0.973265  s :     0.973265
      pz      :     0.004407  p :     0.023917
      px      :     0.005957
      py      :     0.013552

 43 H s       :     1.008475  s :     1.008475
      pz      :     0.007034  p :     0.023648
      px      :     0.009473
      py      :     0.007140

 44 H s       :     0.999696  s :     0.999696
      pz      :     0.012927  p :     0.023705
      px      :     0.004415
      py      :     0.006363



                     *******************************
                     * LOEWDIN POPULATION ANALYSIS *
                     *******************************

----------------------
LOEWDIN ATOMIC CHARGES
----------------------
   0 C :    0.087240
   1 O :   -0.094385
   2 C :    0.062961
   3 C :   -0.072537
   4 C :    0.017982
   5 C :   -0.063698
   6 C :    0.007322
   7 C :   -0.040909
   8 C :    0.116468
   9 O :   -0.021200
  10 C :   -0.166454
  11 C :    0.084229
  12 O :   -0.211207
  13 C :   -0.054211
  14 C :   -0.007282
  15 C :   -0.030824
  16 C :    0.005816
  17 C :   -0.048027
  18 C :   -0.027483
  19 C :   -0.027511
  20 C :   -0.034382
  21 C :   -0.021237
  22 C :    0.011673
  23 H :    0.014804
  24 H :    0.014705
  25 H :    0.027749
  26 H :    0.025600
  27 H :    0.031623
  28 H :    0.027218
  29 H :    0.030276
  30 H :    0.064101
  31 H :    0.021435
  32 H :    0.022878
  33 H :    0.022595
  34 H :    0.021719
  35 H :    0.017454
  36 H :    0.018180
  37 H :    0.018197
  38 H :    0.017410
  39 H :    0.022268
  40 H :    0.018799
  41 H :    0.020925
  42 H :    0.019184
  43 H :    0.021075
  44 H :    0.029461

-------------------------------
LOEWDIN REDUCED ORBITAL CHARGES
-------------------------------
  0 C s       :     2.840892  s :     2.840892
      pz      :     1.060000  p :     2.949514
      px      :     0.825653
      py      :     1.063861
      dz2     :     0.013778  d :     0.122354
      dxz     :     0.034567
      dyz     :     0.019034
      dx2y2   :     0.034746
      dxy     :     0.020229

  1 O s       :     3.433289  s :     3.433289
      pz      :     1.630648  p :     4.629416
      px      :     1.249819
      py      :     1.748949
      dz2     :     0.004544  d :     0.031679
      dxz     :     0.013251
      dyz     :     0.002506
      dx2y2   :     0.006063
      dxy     :     0.005315

  2 C s       :     2.835597  s :     2.835597
      pz      :     1.021524  p :     2.925513
      px      :     0.947241
      py      :     0.956747
      dz2     :     0.040733  d :     0.175929
      dxz     :     0.060095
      dyz     :     0.023257
      dx2y2   :     0.024566
      dxy     :     0.027277

  3 C s       :     2.850069  s :     2.850069
      pz      :     1.045234  p :     3.131606
      px      :     1.049188
      py      :     1.037184
      dz2     :     0.028753  d :     0.090862
      dxz     :     0.028535
      dyz     :     0.012741
      dx2y2   :     0.012329
      dxy     :     0.008504

  4 C s       :     2.850888  s :     2.850888
      pz      :     1.042461  p :     3.036795
      px      :     1.051947
      py      :     0.942387
      dz2     :     0.023613  d :     0.094335
      dxz     :     0.029215
      dyz     :     0.006695
      dx2y2   :     0.017334
      dxy     :     0.017477

  5 C s       :     2.841191  s :     2.841191
      pz      :     1.053449  p :     3.114719
      px      :     1.036244
      py      :     1.025025
      dz2     :     0.026807  d :     0.107788
      dxz     :     0.039171
      dyz     :     0.013287
      dx2y2   :     0.015930
      dxy     :     0.012593

  6 C s       :     2.849403  s :     2.849403
      pz      :     1.044812  p :     3.048420
      px      :     1.046077
      py      :     0.957532
      dz2     :     0.026994  d :     0.094856
      dxz     :     0.031387
      dyz     :     0.014653
      dx2y2   :     0.011943
      dxy     :     0.009879

  7 C s       :     2.853618  s :     2.853618
      pz      :     1.037727  p :     3.097961
      px      :     1.050298
      py      :     1.009936
      dz2     :     0.023202  d :     0.089330
      dxz     :     0.028107
      dyz     :     0.006545
      dx2y2   :     0.016632
      dxy     :     0.014844

  8 C s       :     2.845960  s :     2.845960
      pz      :     0.911990  p :     2.853638
      px      :     1.084828
      py      :     0.856820
      dz2     :     0.053558  d :     0.183934
      dxz     :     0.061478
      dyz     :     0.033164
      dx2y2   :     0.015106
      dxy     :     0.020627

  9 O s       :     3.415280  s :     3.415280
      pz      :     1.316213  p :     4.579065
      px      :     1.564923
      py      :     1.697929
      dz2     :     0.010042  d :     0.026855
      dxz     :     0.008647
      dyz     :     0.003662
      dx2y2   :     0.003934
      dxy     :     0.000571

 10 C s       :     2.855470  s :     2.855470
      pz      :     1.040938  p :     3.228630
      px      :     1.039340
      py      :     1.148352
      dz2     :     0.023282  d :     0.082353
      dxz     :     0.031034
      dyz     :     0.003659
      dx2y2   :     0.016356
      dxy     :     0.008022

 11 C s       :     2.852572  s :     2.852572
      pz      :     1.001668  p :     2.847501
      px      :     1.045051
      py      :     0.800782
      dz2     :     0.059374  d :     0.215698
      dxz     :     0.090807
      dyz     :     0.039160
      dx2y2   :     0.013613
      dxy     :     0.012742

 12 O s       :     3.546806  s :     3.546806
      pz      :     1.449324  p :     4.637033
      px      :     1.738001
      py      :     1.449709
      dz2     :     0.015064  d :     0.027368
      dxz     :     0.005806
      dyz     :     0.005898
      dx2y2   :     0.000504
      dxy     :     0.000096

 13 C s       :     2.851927  s :     2.851927
      pz      :     1.045348  p :     3.094962
      px      :     1.036733
      py      :     1.012881
      dz2     :     0.023878  d :     0.107323
      dxz     :     0.031671
      dyz     :     0.015941
      dx2y2   :     0.020749
      dxy     :     0.015084

 14 C s       :     2.851399  s :     2.851399
      pz      :     1.024467  p :     3.061174
      px      :     1.050566
      py      :     0.986141
      dz2     :     0.019845  d :     0.094709
      dxz     :     0.029232
      dyz     :     0.013248
      dx2y2   :     0.014837
      dxy     :     0.017546

 15 C s       :     2.849248  s :     2.849248
      pz      :     1.025101  p :     3.087792
      px      :     1.057410
      py      :     1.005281
      dz2     :     0.017727  d :     0.093784
      dxz     :     0.025905
      dyz     :     0.010794
      dx2y2   :     0.020388
      dxy     :     0.018971

 16 C s       :     2.854035  s :     2.854035
      pz      :     1.033538  p :     3.030997
      px      :     1.033670
      py      :     0.963789
      dz2     :     0.024031  d :     0.109151
      dxz     :     0.030406
      dyz     :     0.016001
      dx2y2   :     0.020005
      dxy     :     0.018708

 17 C s       :     2.841071  s :     2.841071
      pz      :     1.031656  p :     3.087606
      px      :     1.021917
      py      :     1.034033
      dz2     :     0.022878  d :     0.119350
      dxz     :     0.024534
      dyz     :     0.024422
      dx2y2   :     0.030396
      dxy     :     0.017119

 18 C s       :     2.833975  s :     2.833975
      pz      :     1.057746  p :     3.118869
      px      :     1.053273
      py      :     1.007851
      dz2     :     0.010884  d :     0.074638
      dxz     :     0.013409
      dyz     :     0.019636
      dx2y2   :     0.020769
      dxy     :     0.009940

 19 C s       :     2.833744  s :     2.833744
      pz      :     1.032694  p :     3.119165
      px      :     1.035117
      py      :     1.051353
      dz2     :     0.016255  d :     0.074603
      dxz     :     0.013486
      dyz     :     0.015804
      dx2y2   :     0.022163
      dxy     :     0.006895

 20 C s       :     2.831614  s :     2.831614
      pz      :     1.023898  p :     3.128224
      px      :     1.058812
      py      :     1.045514
      dz2     :     0.016789  d :     0.074545
      dxz     :     0.015666
      dyz     :     0.014490
      dx2y2   :     0.021568
      dxy     :     0.006032

 21 C s       :     2.849147  s :     2.849147
      pz      :     1.033495  p :     3.078172
      px      :     1.049438
      py      :     0.995239
      dz2     :     0.019252  d :     0.093919
      dxz     :     0.030293
      dyz     :     0.012822
      dx2y2   :     0.014893
      dxy     :     0.016659

 22 C s       :     2.852629  s :     2.852629
      pz      :     1.016876  p :     3.041869
      px      :     1.052802
      py      :     0.972191
      dz2     :     0.017608  d :     0.093829
      dxz     :     0.027493
      dyz     :     0.009907
      dx2y2   :     0.019598
      dxy     :     0.019222

 23 H s       :     0.919491  s :     0.919491
      pz      :     0.029768  p :     0.065706
      px      :     0.012178
      py      :     0.023760

 24 H s       :     0.919664  s :     0.919664
      pz      :     0.015368  p :     0.065631
      px      :     0.009006
      py      :     0.041258

 25 H s       :     0.908675  s :     0.908675
      pz      :     0.031019  p :     0.063576
      px      :     0.019851
      py      :     0.012707

 26 H s       :     0.902287  s :     0.902287
      pz      :     0.017950  p :     0.072112
      px      :     0.035139
      py      :     0.019024

 27 H s       :     0.896497  s :     0.896497
      pz      :     0.043628  p :     0.071880
      px      :     0.012267
      py      :     0.015984

 28 H s       :     0.902522  s :     0.902522
      pz      :     0.017455  p :     0.070260
      px      :     0.036160
      py      :     0.016645

 29 H s       :     0.899126  s :     0.899126
      pz      :     0.041367  p :     0.070598
      px      :     0.011330
      py      :     0.017901

 30 H s       :     0.717857  s :     0.717857
      pz      :     0.042801  p :     0.218041
      px      :     0.135763
      py      :     0.039477

 31 H s       :     0.901467  s :     0.901467
      pz      :     0.042332  p :     0.077098
      px      :     0.013346
      py      :     0.021420

 32 H s       :     0.906937  s :     0.906937
      pz      :     0.020483  p :     0.070185
      px      :     0.027814
      py      :     0.021888

 33 H s       :     0.906280  s :     0.906280
      pz      :     0.035889  p :     0.071125
      px      :     0.013467
      py      :     0.021769

 34 H s       :     0.911911  s :     0.911911
      pz      :     0.025123  p :     0.066370
      px      :     0.022817
      py      :     0.018430

 35 H s       :     0.915433  s :     0.915433
      pz      :     0.032539  p :     0.067112
      px      :     0.012882
      py      :     0.021691

 36 H s       :     0.915326  s :     0.915326
      pz      :     0.016197  p :     0.066494
      px      :     0.037043
      py      :     0.013255

 37 H s       :     0.915322  s :     0.915322
      pz      :     0.015545  p :     0.066481
      px      :     0.038095
      py      :     0.012841

 38 H s       :     0.915384  s :     0.915384
      pz      :     0.034493  p :     0.067206
      px      :     0.013098
      py      :     0.019616

 39 H s       :     0.911339  s :     0.911339
      pz      :     0.013806  p :     0.066393
      px      :     0.014508
      py      :     0.038079

 40 H s       :     0.914206  s :     0.914206
      pz      :     0.028570  p :     0.066995
      px      :     0.021372
[...]
    81a ->  85a  :     0.108250 (c= -0.32901388)

STATE 18:  E=   0.228667 au      6.222 eV    50186.7 cm**-1 <S**2> =   0.000000 Mult 1
    71a ->  83a  :     0.027173 (c= -0.16484096)
    76a ->  83a  :     0.688720 (c= -0.82989177)
    76a ->  84a  :     0.022270 (c=  0.14922988)
    78a ->  84a  :     0.029813 (c=  0.17266437)
    78a ->  85a  :     0.172614 (c=  0.41546785)

Storing amplitudes in GBW file ... 
... GBW file created

-----------------------------
TD-DFT/TDA-EXCITATION SPECTRA
-----------------------------

Center of mass = (  1.2084,  0.0440,  0.4689)
Generating CIS transition densities           ... done

----------------------------------------------------------------------------------------------------
                     ABSORPTION SPECTRUM VIA TRANSITION ELECTRIC DIPOLE MOMENTS    
----------------------------------------------------------------------------------------------------
     Transition      Energy     Energy  Wavelength fosc(D2)      D2        DX        DY        DZ   
                      (eV)      (cm-1)    (nm)                 (au**2)    (au)      (au)      (au)  
----------------------------------------------------------------------------------------------------
  0-1A  ->  1-1A    3.750702   30251.5   330.6   0.034675863   0.37736  -0.61217  -0.04220   0.02868
  0-1A  ->  2-1A    3.919971   31616.7   316.3   1.125056269  11.71476   3.36194   0.01329  -0.64183
  0-1A  ->  3-1A    4.554525   36734.7   272.2   0.055568244   0.49800   0.41722  -0.06718   0.56516
  0-1A  ->  4-1A    4.573926   36891.2   271.1   0.034374333   0.30675   0.48908   0.09931   0.24019
  0-1A  ->  5-1A    4.658759   37575.4   266.1   0.004161309   0.03646   0.09009   0.02502   0.16648
  0-1A  ->  6-1A    4.915374   39645.2   252.2   0.022016280   0.18282   0.36095   0.06674  -0.21927
  0-1A  ->  7-1A    5.065767   40858.2   244.7   0.083690391   0.67433  -0.64504  -0.07459   0.50268
  0-1A  ->  8-1A    5.223513   42130.5   237.4   0.040841458   0.31914   0.47460  -0.08189   0.29527
  0-1A  ->  9-1A    5.299608   42744.2   233.9   0.079365446   0.61127   0.77050  -0.11331  -0.06899
  0-1A  -> 10-1A    5.451006   43965.3   227.5   0.008200967   0.06141  -0.15636  -0.02362  -0.19079
  0-1A  -> 11-1A    5.613552   45276.4   220.9   0.003141019   0.02284  -0.06673  -0.05762   0.12274
  0-1A  -> 12-1A    5.747864   46359.7   215.7   0.064256233   0.45630   0.56339   0.06132  -0.36761
  0-1A  -> 13-1A    5.818215   46927.1   213.1   0.002224103   0.01560   0.01065  -0.01488   0.12356
  0-1A  -> 14-1A    5.843444   47130.6   212.2   0.010222543   0.07141   0.19845  -0.01155   0.17858
  0-1A  -> 15-1A    5.913513   47695.7   209.7   0.065787170   0.45409  -0.60065   0.11774  -0.28186
  0-1A  -> 16-1A    6.021196   48564.2   205.9   0.024118773   0.16350  -0.15405  -0.00220  -0.37385
  0-1A  -> 17-1A    6.082058   49055.1   203.9   0.034742196   0.23316  -0.46635  -0.01294  -0.12453
  0-1A  -> 18-1A    6.222359   50186.7   199.3   0.004069877   0.02670   0.10336   0.01307   0.12587

----------------------------------------------------------------------------------------------------
                     ABSORPTION SPECTRUM VIA TRANSITION VELOCITY DIPOLE MOMENTS    
----------------------------------------------------------------------------------------------------
     Transition      Energy     Energy  Wavelength fosc(P2)      P2        PX        PY        PZ   
                      (eV)      (cm-1)    (nm)                 (au**2)    (au)      (au)      (au)  
----------------------------------------------------------------------------------------------------
  0-1A  ->  1-1A    3.750702   30251.5   330.6   0.015554790   0.00322   0.05587  -0.00422  -0.00876
  0-1A  ->  2-1A    3.919971   31616.7   316.3   0.422837106   0.09137  -0.30222  -0.00107   0.00552
  0-1A  ->  3-1A    4.554525   36734.7   272.2   0.016539782   0.00415  -0.05220  -0.01152   0.03599
  0-1A  ->  4-1A    4.573926   36891.2   271.1   0.008870135   0.00224  -0.04625   0.00707   0.00689
  0-1A  ->  5-1A    4.658759   37575.4   266.1   0.002313527   0.00059  -0.02339   0.00062   0.00682
  0-1A  ->  6-1A    4.915374   39645.2   252.2   0.002980221   0.00081  -0.02813   0.00400   0.00056
  0-1A  ->  7-1A    5.065767   40858.2   244.7   0.024392988   0.00681   0.08011  -0.01310  -0.01492
  0-1A  ->  8-1A    5.223513   42130.5   237.4   0.001363733   0.00039  -0.00677  -0.00758   0.01701
  0-1A  ->  9-1A    5.299608   42744.2   233.9   0.029094436   0.00850  -0.07288  -0.00567   0.05618
  0-1A  -> 10-1A    5.451006   43965.3   227.5   0.003713431   0.00112   0.03338   0.00104  -0.00082
  0-1A  -> 11-1A    5.613552   45276.4   220.9   0.000663800   0.00021   0.00670  -0.01057   0.00698
  0-1A  -> 12-1A    5.747864   46359.7   215.7   0.038806757   0.01230  -0.10982   0.00261  -0.01515
  0-1A  -> 13-1A    5.818215   46927.1   213.1   0.000124902   0.00004   0.00425  -0.00273   0.00381
  0-1A  -> 14-1A    5.843444   47130.6   212.2   0.003965891   0.00128  -0.03513  -0.00216  -0.00622
  0-1A  -> 15-1A    5.913513   47695.7   209.7   0.027416533   0.00894   0.09412   0.00828  -0.00324
  0-1A  -> 16-1A    6.021196   48564.2   205.9   0.005772980   0.00192   0.04261   0.00941  -0.00348
  0-1A  -> 17-1A    6.082058   49055.1   203.9   0.021710112   0.00728   0.08481   0.00748  -0.00547
  0-1A  -> 18-1A    6.222359   50186.7   199.3   0.001803881   0.00062  -0.02367  -0.00733   0.00211

------------------------------------------------------------------------------------------
                     CD SPECTRUM VIA TRANSITION ELECTRIC DIPOLE MOMENTS    
------------------------------------------------------------------------------------------
     Transition      Energy     Energy  Wavelength    R        MX        MY        MZ   
                      (eV)      (cm-1)    (nm)   (1e40*cgs)   (au)      (au)      (au)  
------------------------------------------------------------------------------------------
  0-1A  ->  1-1A    3.750702   30251.5   330.6   -0.31406  -0.01675   0.07923  -0.21768
  0-1A  ->  2-1A    3.919971   31616.7   316.3  -17.91136   0.01038  -0.32643  -0.01161
  0-1A  ->  3-1A    4.554525   36734.7   272.2    5.84726  -0.03277  -0.18609  -0.01988
  0-1A  ->  4-1A    4.573926   36891.2   271.1   17.97283  -0.04500  -0.09900  -0.02616
  0-1A  ->  5-1A    4.658759   37575.4   266.1   -5.22641  -0.00282   0.10316   0.05261
  0-1A  ->  6-1A    4.915374   39645.2   252.2   -0.42742   0.00640  -0.04474  -0.00721
  0-1A  ->  7-1A    5.065767   40858.2   244.7   13.27245   0.01588   0.09825  -0.02105
  0-1A  ->  8-1A    5.223513   42130.5   237.4    3.08395   0.00613   0.01327  -0.02833
  0-1A  ->  9-1A    5.299608   42744.2   233.9   -8.84153   0.01904  -0.06691   0.05071
  0-1A  -> 10-1A    5.451006   43965.3   227.5  -10.60702  -0.03501   0.04307  -0.09457
  0-1A  -> 11-1A    5.613552   45276.4   220.9    0.58952  -0.03727   0.07392   0.00425
  0-1A  -> 12-1A    5.747864   46359.7   215.7    5.82419   0.01757   0.07817   0.07357
  0-1A  -> 13-1A    5.818215   46927.1   213.1   -0.44149  -0.05210  -0.07876   0.00258
  0-1A  -> 14-1A    5.843444   47130.6   212.2    3.43645  -0.05256  -0.00528   0.01725
  0-1A  -> 15-1A    5.913513   47695.7   209.7  -15.23556  -0.00935   0.19628  -0.01273
  0-1A  -> 16-1A    6.021196   48564.2   205.9    4.90042   0.03964   0.17257   0.01046
  0-1A  -> 17-1A    6.082058   49055.1   203.9    5.71508   0.03271   0.11552  -0.03716
  0-1A  -> 18-1A    6.222359   50186.7   199.3   -1.19299   0.01569  -0.09527   0.01712

------------------------------------------------------------------------------------------
                     CD SPECTRUM VIA TRANSITION VELOCITY DIPOLE MOMENTS    
------------------------------------------------------------------------------------------
     Transition      Energy     Energy  Wavelength    R        MX        MY        MZ   
                      (eV)      (cm-1)    (nm)   (1e40*cgs)   (au)      (au)      (au)  
------------------------------------------------------------------------------------------
  0-1A  ->  1-1A    3.750702   30251.5   330.6    2.17996  -0.01675   0.07923  -0.21768
  0-1A  ->  2-1A    3.919971   31616.7   316.3   -9.32443   0.01038  -0.32643  -0.01161
  0-1A  ->  3-1A    4.554525   36734.7   272.2    8.84266  -0.03277  -0.18609  -0.01988
  0-1A  ->  4-1A    4.573926   36891.2   271.1    3.36944  -0.04500  -0.09900  -0.02616
  0-1A  ->  5-1A    4.658759   37575.4   266.1    1.34462  -0.00282   0.10316   0.05261
  0-1A  ->  6-1A    4.915374   39645.2   252.2   -0.94742   0.00640  -0.04474  -0.00721
  0-1A  ->  7-1A    5.065767   40858.2   244.7    0.75676   0.01588   0.09825  -0.02105
  0-1A  ->  8-1A    5.223513   42130.5   237.4   -1.53257   0.00613   0.01327  -0.02833
  0-1A  ->  9-1A    5.299608   42744.2   233.9    4.45507   0.01904  -0.06691   0.05071
  0-1A  -> 10-1A    5.451006   43965.3   227.5   -2.46172  -0.03501   0.04307  -0.09457
  0-1A  -> 11-1A    5.613552   45276.4   220.9   -2.28821  -0.03727   0.07392   0.00425
  0-1A  -> 12-1A    5.747864   46359.7   215.7   -6.33942   0.01757   0.07817   0.07357
  0-1A  -> 13-1A    5.818215   46927.1   213.1    0.00714  -0.05210  -0.07876   0.00258
  0-1A  -> 14-1A    5.843444   47130.6   212.2    3.84315  -0.05256  -0.00528   0.01725
  0-1A  -> 15-1A    5.913513   47695.7   209.7    1.70343  -0.00935   0.19628  -0.01273
  0-1A  -> 16-1A    6.021196   48564.2   205.9    6.97926   0.03964   0.17257   0.01046
  0-1A  -> 17-1A    6.082058   49055.1   203.9    8.10331   0.03271   0.11552  -0.03716
  0-1A  -> 18-1A    6.222359   50186.7   199.3    0.74942   0.01569  -0.09527   0.01712

Total run time:      133.619 sec

           *** ORCA-CIS/TD-DFT FINISHED WITHOUT ERROR ***
-----------------------
CIS/TD-DFT TOTAL ENERGY
-----------------------

    E(SCF)  =   -999.721377361 Eh
    DE(CIS) =      0.137835767 Eh (Root  1)
    ----------------------------- ---------
    E(tot)  =   -999.583541595 Eh


Maximum memory used throughout the entire CIS-calculation: 725.5 MB
=> NOW LEAVING ORCA_CIS

-------------------------   --------------------
FINAL SINGLE POINT ENERGY      -999.583541594809
-------------------------   --------------------



           ************************************************************
           *        Program running with 4 parallel MPI-processes     *
           *              working on a common directory               *
           ************************************************************

------------------------------------------------------------------------------
                              ORCA PROPERTY CALCULATIONS
------------------------------------------------------------------------------

GBWName                                 ... td.gbw
Number of atoms                         ...     45
Number of basis functions               ...    432
Max core memory                         ...   2500 MB

Electric properties:
Dipole moment                           ... YES
Quadrupole moment                       ...  NO
Static polarizability (Dipole/Dipole)   ...  NO
Static polarizability (Dipole/Quad.)    ...  NO
Static polarizability (Quad./Quad.)     ...  NO
Static polarizability (Velocity)        ...  NO
Static hyperpolarizability              ...  NO

Atomic electric properties:
Dipole moment                           ...  NO
Quadrupole moment                       ...  NO
Static polarizability                   ...  NO

Choice of electric origin               ... Center of mass
Position of electric origin             ...     1.208392     0.043992     0.468850

General magnetic properties:
Magnetizability                         ...  NO

EPR properties:
g-Tensor (aka g-matrix)                 ...  NO
Zero-Field splitting spin-orbit         ...  NO
Zero-field splitting spin-spin          ...  NO
Hyperfine couplings                     ...  NO (   0 nuclei)
Quadrupole couplings                    ...  NO (   0 nuclei)
Contact density                         ...  NO (   0 nuclei)

NMR properties:
Chemical shifts                         ...  NO (   0 nuclei)
Spin-rotation constants                 ...  NO (   0 nuclei)
Spin-spin couplings                     ...  NO (   0 nuclei,    0 pairs)

Choice of magnetic origin               ... GIAO
Position of magnetic origin             ...     0.000000     0.000000     0.000000

Properties with geometric perturbations:
SCF Hessian                             ...  NO
IR spectrum                             ...  NO
VCD spectrum                            ...  NO
X-ray spectroscopy properties:
SCF XES/XAS/RIXS spectra                ...  NO

SCF SOC stabilization energy            ...  NO
Diagonal Born-Oppenheimer correction    ...  NO

-------------
DIPOLE MOMENT
-------------

Method             : SCF
Type of density    : Electron Density
Multiplicity       :   1
Irrep              :   0
Energy             :  -999.7213773613804051 Eh
Basis              : AO
                                X                 Y                 Z
Electronic contribution:     27.148448567       0.948240354       8.953746599
Nuclear contribution   :    -26.517421367      -1.063784995     -10.097058547
                        -----------------------------------------
Total Dipole Moment    :      0.631027201      -0.115544641      -1.143311947
                        -----------------------------------------
Magnitude (a.u.)       :      1.310995080
Magnitude (Debye)      :      3.332284674



--------------------
Rotational spectrum 
--------------------
 
Rotational constants in cm-1:             0.023509             0.002620             0.002414 
Rotational constants in MHz :           704.775299            78.538700            72.360080 

Dipole components along the rotational axes: 
x,y,z [a.u.] :     0.704924    -1.077437    -0.246821 
x,y,z [Debye]:     1.791773    -2.738627    -0.627369 

 

Dipole moment calculation done in   0.0 sec 

Maximum memory used throughout the entire PROP-calculation: 22.8 MB

--------------------------------
SUGGESTED CITATIONS FOR THIS RUN
--------------------------------

Below you find a list of papers that are relevant to this ORCA run
We neither can nor want to force you to cite these papers, but we appreciate if you do
You receive ORCA, which is the product of decades of hard work by many enthusiastic individuals, for free
The only thing we kindly ask in return is that you cite our papers,
We deeply appreciate it, if you show your appreciation for ORCA by not just citing the generic ORCA reference.

Please note that relegating all ORCA citations to the supporting information does *not* help us.
SI sections are not indexed - citations you put there will not count into any citation statistics
But we need these citations in order to attract the funding resources that allow us to do what we are doing

Therefore, if you are a happy ORCA user, please consider citing a few of the papers listed below in the main body of your paper

In addition to the list printed below, the program has created the file td.bibtex that contains the list in bibtex format
You can import this file easily into all common literature databanks and citation aid programs

It goes without saying that in many instances, there are alternative algorithms to achieve similar
results as the ones you have gotten from ORCA. It is, of course, also the case that in some instances
ORCA just re-implements algorithms worked out by others. We are fully aware of that and we are also
fully appreciative of our colleagues work. Hence this citation list should not be read as indicating
that the listed papers, which are focused on our own work, are the only ones worth citing. It simply
meant to make it easier for users to cite ORCA specific papers. It is not a substitute for doing your
own literature research and citing the relevant literature in a scientifically appropriate manner.

List of essential papers. We consider these as the minimum necessary citations

  1. Neese, F.
     Software update: the ORCA program system, version 6.0
     WIRES Comput. Molec. Sci. 2025 15(1), e70019
     doi.org/10.1002/wcms.70019

List of papers to cite with high priority. The work reported in these papers was absolutely
necessary for this run to complete.
Our perspective: the developers of density functionals and basis sets usually get cited in chemistry papers
Good! But without the algorithms to do something with them, the functionals or basis sets would not do anything.
Hence, in our opinion, the algorithm design and method developments papers are equally worthy of getting cited

  1. Neese, F.; Olbrich, G.
     Efficient use of the resolution of the identity approximation in time-dependent density functional calculations with hybrid density functionals
     Chem. Phys. Lett. 2002 362 , 170-178
     doi.org/10.1016/s0009-2614(02)01053-9
  2. Neese, F.
     An improvement of the resolution of the identity approximation for the formation of the Coulomb matrix
     J. Comp. Chem. 2003 24(14), 1740-1747
     doi.org/10.1002/jcc.10318
  3. Neese, F.; Wennmohs, F.; Hansen, A.; Becker, U.
     Efficient, approximate and parallel Hartree-Fock and hybrid DFT calculations. A 'chain-of-spheres' algorithm for the Hartree-Fock exchange
     Chem. Phys. 2009 356(1-3), 98-109
     doi.org/10.1016/j.chemphys.2008.10.036
  4. Helmich-Paris, B.; de Souza, B.; Neese, F.; Izsák, R.
     An improved chain of spheres for exchange algorithm
     J. Chem. Phys. 2021 155(10), 104109
     doi.org/10.1063/5.0058766
  5. Neese, F.
     The SHARK Integral Generation and Digestion System
     J. Comp. Chem. 2022 44(3), 381
     doi.org/10.1002/jcc.26942

List of suggested additional citations. These are papers that are important in the 'surrounding' of 
of this run, or papers that preceded the highly important papers. If you like your results we are grateful for a citation.

  1. Izsak, R.; Neese, F.
     An overlap fitted chain of spheres exchange method
     J. Chem. Phys. 2011 135 , 144105
     doi.org/10.1063/1.3646921
  2. Izsak, R.; Hansen, A.; Neese, F.
     The resolution of identity and chain of spheres approximations for the LPNO-CCSD singles Fock term
     Molec. Phys. 2012 110 , 2413-2417
     doi.org/10.1080/00268976.2012.687466
  3. Neese, F.
     The ORCA program system
     WIRES Comput. Molec. Sci. 2012 2(1), 73-78
     doi.org/10.1002/wcms.81
  4. Izsak, R.; Neese, F.; Klopper, W.
     Robust fitting techniques in the chain of spheres approximation to the Fock exchange: The role of the complementary space
     J. Chem. Phys. 2013 139 , 
     doi.org/10.1063/1.4819264
  5. Neese, F.
     Software update: the ORCA program system, version 4.0
     WIRES Comput. Molec. Sci. 2018 8(1), 1-6
     doi.org/10.1002/wcms.1327
  6. Neese, F.; Wennmohs, F.; Becker, U.; Riplinger, C.
     The ORCA quantum chemistry program package
     J. Chem. Phys. 2020 152(22), 224108
     doi.org/10.1063/5.0004608
  7. Neese, F.
     Software update: The ORCA program system—Version 5.0
     WIRES Comput. Molec. Sci. 2022 12(1), e1606
     doi.org/10.1002/wcms.1606

List of optional additional citations

  1. Neese, F.
     Approximate second-order SCF convergence for spin unrestricted wavefunctions
     Chem. Phys. Lett. 2000 325(1-3), 93-98
     doi.org/10.1016/s0009-2614(00)00662-x

Timings for individual modules:

Sum of individual times          ...      257.054 sec (=   4.284 min)
Startup calculation              ...        5.021 sec (=   0.084 min)   2.0 %
SCF iterations                   ...      117.522 sec (=   1.959 min)  45.7 %
Property integrals               ...        0.415 sec (=   0.007 min)   0.2 %
Property calculations            ...        0.234 sec (=   0.004 min)   0.1 %
CIS module                       ...      133.862 sec (=   2.231 min)  52.1 %
                             ****ORCA TERMINATED NORMALLY****
TOTAL RUN TIME: 0 days 0 hours 4 minutes 17 seconds 846 msec
