
                                 *****************
                                 * O   R   C   A *
                                 *****************

                                            #,                                       
                                            ###                                      
                                            ####                                     
                                            #####                                    
                                            ######                                   
                                           ########,                                 
                                     ,,################,,,,,                         
                               ,,#################################,,                 
                          ,,##########################################,,             
                       ,#########################################, ''#####,          
                    ,#############################################,,   '####,        
                  ,##################################################,,,,####,       
                ,###########''''           ''''###############################       
              ,#####''   ,,,,##########,,,,          '''####'''          '####       
            ,##' ,,,,###########################,,,                        '##       
           ' ,,###''''                  '''############,,,                           
         ,,##''                                '''############,,,,        ,,,,,,###''
      ,#''                                            '''#######################'''  
     '                                                          ''''####''''         
             ,#######,   #######,   ,#######,      ##                                
            ,#'     '#,  ##    ##  ,#'     '#,    #''#        ,####,    ,#,          
            ##       ##  ##   ,#'  ##            #'  '#       #'       ,# #          
            ##       ##  #######   ##           ,######,      #####,      #          
            '#,     ,#'  ##    ##  '#,     ,#' ,#      #,     #,   #      #          
             '#######'   ##     ##  '#######'  #'      '#     '####' #    #          



                #########################################################
                #                        -***-                          #
                #          Department of theory and spectroscopy        #
                #                                                       #
                #                      Frank Neese                      #
                #                                                       #
                #     Directorship, Architecture, Infrastructure        #
                #                    SHARK, DRIVERS                     #
                #        Core code/Algorithms in most modules           #
                #                                                       #
                #        Max Planck Institute fuer Kohlenforschung      #
                #                Kaiser Wilhelm Platz 1                 #
                #                 D-45470 Muelheim/Ruhr                 #
                #                      Germany                          #
                #                                                       #
                #                  All rights reserved                  #
                #                        -***-                          #
                #########################################################


                         Program Version 6.1.1  -  RELEASE   -


 With contributions from (in alphabetic order):
[Max-Planck-Institut fuer Kohlenforschung]                               
  Daniel Aravena         : Magnetic Suceptibility                        
  Michael Atanasov       : Ab Initio Ligand Field Theory (pilot matlab implementation)
  Alexander A. Auer      : GIAO ZORA, VPT2 properties, NMR spectrum      
  Ute Becker             : All parallelization in ORCA, NUMFREQ, NUMCALC 
  Giovanni Bistoni       : ED, misc. LED, open-shell LED, HFLD           
  Dmytro Bykov           : pre 5.0 version of the SCF Hessian            
  Marcos Casanova-Páez   : Triplet and SCS-CIS(D). UHF-(DLPNO)-IP/EA/STEOM-CCSD. UHF-CVS-IP/STEOM-CCSD   
  Vijay G. Chilkuri      : MRCI spin determinant printing, contributions to CSF-ICE 
  Pauline Colinet        : FMM embedding                                 
  Dipayan Datta          : RHF DLPNO-CCSD density                        
  Achintya Kumar Dutta   : EOM-CC, STEOM-CC                              
  Nicolas Foglia         : Exact transition moments, OPA infrastructure, MCD improvements    
  Dmitry Ganyushin       : Spin-Orbit,Spin-Spin,Magnetic field MRCI      
  Miquel Garcia-Rates    : C-PCM and meta-GGA Hessian, CCSD/C-PCM, Gaussian charge scheme 
  Tiago L. C. Gouveia    : GS-ROHF, GS-ROCIS                             
  Yang Guo               : DLPNO-NEVPT2, F12-NEVPT2, CIM, IAO-localization        
  Andreas Hansen         : Spin unrestricted coupled pair/coupled cluster methods 
  Ingolf Harden          : AUTO-CI MPn and infrastructure                
  Benjamin Helmich-Paris : MC-RPA, TRAH-(SCF,CASSCF), AVAS, COSX integrals, SCF dyn. polar., MC-PDFT, srDFT 
  Lee Huntington         : MR-EOM, pCC                                   
  Robert Izsak           : Overlap fitted RIJCOSX, COSX-SCS-MP3, EOM     
  Riya Kayal             : Wick's Theorem for AUTO-CI, AUTO-CI UHF-CCSDT 
  Emily Kempfer          : AUTO-CI RHF CISDT and CCSDT, approximate NEVPT4
  Christian Kollmar      : KDIIS, OOCD, Brueckner-CCSD(T), CCSD density, CASPT2, CASPT2-K, improved NEVPT2 
  Axel Koslowski         : Symmetry handling                             
  Simone Kossmann        : meta-GGA functionals, TD-DFT gradient, OOMP2, (MP2 Hessian; deprecated post 5.0) 
  Lucas Lang             : DCDCAS, Hyperfine gauge corrections, ICE-SOC+SSC
  Marvin Lechner         : AUTO-CI (C++ implementation), FIC-MRCC        
  Spencer Leger          : CASSCF response                               
  Dagmar Lenk            : GEPOL surface, SMD, ORCA-2-JSON               
  Dimitrios Liakos       : Extrapolation schemes; Compound Job, Property file
  Dimitrios Manganas     : Further ROCIS development; embedding schemes. LFT, Crystal Embedding 
  Dimitrios Pantazis     : SARC Basis sets                               
  Anastasios Papadopoulos: AUTO-CI, single reference methods and gradients 
  Taras Petrenko         : pre 6.0 DFT Hessian and TD-DFT gradient,  ECA, NRVS 
  Petra Pikulova         : Analytic Raman intensities                    
  Peter Pinski           : DLPNO-MP2, DLPNO-MP2 Gradient                 
  Shashank Vittal Rao    : ES-AILFT, MagRelax                            
  Christoph Reimann      : Effective Core Potentials                     
  Marius Retegan         : Local ZFS, SOC                                
  Christoph Riplinger    : Optimizer, TS searches, QM/MM, DLPNO-CCSD(T), (RO)-DLPNO pert. Triples 
  Michael Roemelt        : Original ROCIS implementation, recursive CI coupling coefficients
  Masaaki Saitow         : Open-shell DLPNO-CCSD energy and density      
  Barbara Sandhoefer     : DKH picture change effects                    
  Yorick L. A. Schmerwitz: GMF and freeze-and-release deltaSCF, NEB S-IDPP initial path                    
  Kantharuban Sivalingam : CASSCF convergence/infrastructure, NEVPT2, NEVPT3, NEVPT4(SD), FIC-MRCI and CEPA variants
  Bernardo de Souza      : ESD, SOC TD-DFT                               
  Georgi L. Stoychev     : AutoAux, RI-MP2 NMR, DLPNO-MP2 response, X2C  
  Van Anh Tran           : RI-MP2 g-tensors                              
  Willem Van den Heuvel  : Paramagnetic NMR                              
  Zikuan Wang            : NOTCH, Electric field optimization            
  Frank Wennmohs         : Technical directorship and infrastructure     
  Hang Xu                : AUTO-CI-Response properties                   
                                                                         
[FACCTs GmbH]                                                            
  Markus Bursch, Nicolas Foglia, Miquel Garcia-Rates, Ingolf Harden, Hagen Neugebauer, Anastasios Papadopoulos, 
  Christoph Riplinger, Bernardo de Souza, Georgi L. Stoychev                                                    
                                                                 
  APM, various basis sets, CI-OPT, improved COSX, DLPNO-Multilevel,           
  DOCKER, DRACO, updates on ESD, Fragmentator, GOAT, IRC, LR-CPCM, L-BFGS, MBIS, meta-GGA TD-DFT gradient, ML-optimized integration grids, 
  MM, NACMEs, nearIR, NEB, NEB-TS, NL-DFT gradient (VV10), 2- and 3-layer-ONIOM, interface openCOSMO-RS, QMMM,   
  Crystal-QMMM, RESP, rigid body optimization, SF, symmetry and pop. for TD-DFT, various functionals, SOLVATOR                                   
                                                                         
[Other institutions]                                                     
  V. Asgeirsson          : NEB                                           
  Christoph Bannwarth    : sTDA-DFT, sTD-DFT, PBEh-3c, B97-3c, D3        
  Giovanni Bistoni       : ETS/NOCV, ADLD/ADEX, COVALED                  
  Martin Brehm           : Molecular dynamics                            
  Ronald Cardenas        : ETS/NOCV                                      
  Martina Colucci        : COVALED                                       
  Sebastian Ehlert       : rSCAN, r2SCAN, r2SCAN-3c, D4, dhf basis sets  
  Marvin Friede          : D4 for Fr, Ra, Ac-Lr                          
  Lars Goerigk           : TD-DFT with DH, B97 family of functionals     
  Stefan Grimme          : VdW corrections, initial TS optimization, DFT functionals, gCP, sTDA/sTD-DF 
  Waldemar Hujo          : DFT-NL                                        
  H. Jonsson             : NEB                                           
  Holger Kruse           : gCP                                           
  Marcel Mueller         : wB97X-3c, vDZP basis set                      
  Hagen Neugebauer       : wr2SCAN, Native XTB                           
  Gianluca Regni         : ADLD/ADEX                                     
  Tobias Risthaus        : pre 6.0 range-separated hybrid DFT and stability analysis
  Lukas Wittmann         : regularized MP2, r2SCAN double-hybrids, wr2SCAN        
                                                                         
We gratefully acknowledge several colleagues who have allowed us to      
interface, adapt or use parts of their codes:                            
  Ed Valeev, F. Pavosevic, A. Kumar             : LibInt (2-el integral package), F12 methods 
  Garnet Chan, S. Sharma, J. Yang, R. Olivares  : DMRG                   
  Ulf Ekstrom                                   : XCFun DFT Library      
  Mihaly Kallay                                 : mrcc  (arbitrary order and MRCC methods)
  Frank Weinhold                                : gennbo (NPA and NBO analysis)           
  Simon Mueller                                 : openCOSMO-RS                            
  Christopher J. Cramer and Donald G. Truhlar   : smd solvation model                     
  S Lehtola, MJT Oliveira, MAL Marques          : LibXC Library                           
  Liviu Ungur et al                             : ANISO software                          


 Your calculation uses the libint2 library for the computation of 2-el integrals
 For citations please refer to: http://libint.valeyev.net

 Your ORCA version has been built with support for libXC version: 7.0.0
 For citations please refer to: https://libxc.gitlab.io

 This ORCA versions uses:
   CBLAS   interface :  Fast vector & matrix operations
   LAPACKE interface :  Fast linear algebra routines
   Shared memory     :  Shared parallel matrices


  ***********************************
  * Starting time: Tue Jul 21 12:33:23 2026
  * Host name:     DESKTOP-19Q153E
  * Process ID:    28360
  * Working dir.:  C:\Users\ysm04\Documents\etc\uv_vis\calculations\02_tddft_orca\diketo\diketo_c012\b3lyp_def2svp\ethanol
  ***********************************

NOTE: MaxCore=2500 MB was set to SCF,MP2,MDCI,CIPSI,MRCI,RASCI and CIS
      => If you want to overwrite this, your respective input block should be placed after the MaxCore statement
================================================================================

----- Orbital basis set information -----
Your calculation utilizes the basis: def2-SVP
   F. Weigend and R. Ahlrichs, Phys. Chem. Chem. Phys. 7, 3297 (2005).

----- AuxJ basis set information -----
Your calculation utilizes the auxiliary basis: def2/J
   H-Rn: F. Weigend, Phys. Chem. Chem. Phys. 8, 1057 (2006).
   Fr-Lr: K. Eichkorn, F. Weigend, O. Treutler, R. Ahlrichs; Theor. Chem. Acc. 97, 119 (1997).

================================================================================
                                        WARNINGS
                       Please study these warnings very carefully!
================================================================================


WARNING: CIS/ROCIS methods need fully converged wavefunctions
  ===> : Setting SCFConvForced true
         You can overwrite this default with %scf ConvForced false 


================================================================================
                                       INPUT FILE
================================================================================
NAME = td.inp
|  1> # diketo / diketo_c012 / b3lyp_def2svp / solvent=ethanol
|  2> ! B3LYP def2-SVP RIJCOSX def2/J TightSCF CPCM(Ethanol)
|  3> %pal nprocs 4 end
|  4> %maxcore 2500
|  5> %scf
|  6>   MaxIter 300
|  7> end
|  8> %tddft
|  9>   nroots 18
| 10>   tda    true
| 11>   maxdim 5
| 12> end
| 13> * xyz 0 1
| 14> C     -4.9768236900    -0.2275318000    -1.8751020300
| 15> C     -4.9564652500     0.3840224900    -0.4709620900
| 16> C     -5.3392569300     1.8674297600    -0.5874647800
| 17> C     -5.9918233200    -0.3549541500     0.3910047300
| 18> C     -3.5964931800     0.2776794100     0.1976873700
| 19> C     -3.4182593600     0.7992011000     1.4802577400
| 20> C     -2.2032282900     0.7201393700     2.1218727900
| 21> C     -1.1043305000     0.1061684800     1.5121658000
| 22> C     -1.2753203100    -0.4159367500     0.2310613200
| 23> C     -2.4975101200    -0.3249235100    -0.4083238800
| 24> C      0.1622064000     0.0565798800     2.2578787900
| 25> O      0.2821043500     0.5653264000     3.3614271100
| 26> C      1.3496169700    -0.6448366400     1.6277398600
| 27> C      1.9954020300     0.2091822600     0.5411906900
| 28> O      1.4204097700     1.1625214500     0.0460649400
| 29> C      3.3548173500    -0.1768403500     0.1306287000
| 30> C      4.0662266800     0.7054673700    -0.6867420000
| 31> C      5.3480967400     0.4266582300    -1.1104032400
| 32> C      5.9565893800    -0.7700967200    -0.7301467400
| 33> O      7.2026193800    -1.1528740300    -1.0774347700
| 34> C      7.9946571900    -0.2933555400    -1.8773010700
| 35> C      5.2444380500    -1.6689340500     0.0752613700
| 36> C      3.9709081500    -1.3783391900     0.5013208800
| 37> H     -4.7398881300    -1.2883599500    -1.8440501800
| 38> H     -5.9721371800    -0.1183371900    -2.3003465900
| 39> H     -4.2738009000     0.2789363800    -2.5322500800
| 40> H     -5.4159965300     2.3366842300     0.3891906500
| 41> H     -4.5903561300     2.4044884100    -1.1659922200
| 42> H     -6.2995742900     1.9643987100    -1.0887119800
| 43> H     -5.7136433300    -1.4012436800     0.4990119100
| 44> H     -6.9705819500    -0.3035615900    -0.0802973500
| 45> H     -6.0674517300     0.0821393400     1.3824810200
| 46> H     -4.2397802600     1.2784476900     1.9898151500
| 47> H     -2.0741028800     1.1301128000     3.1132185800
| 48> H     -0.4541429200    -0.8834849200    -0.2889178200
| 49> H     -2.5810401000    -0.7376688100    -1.4000006100
| 50> H      1.0468316400    -1.5966004100     1.1904828200
| 51> H      2.0850561300    -0.8229650200     2.4141565900
| 52> H      3.5870970700     1.6290052700    -0.9771590200
| 53> H      5.8636426100     1.1399123500    -1.7324726400
| 54> H      8.9447921500    -0.8095007900    -1.9996697600
| 55> H      7.5369935500    -0.1311534000    -2.8566268400
| 56> H      8.1601067400     0.6666028200    -1.3813848100
| 57> H      5.7270134200    -2.5927795600     0.3523195500
| 58> H      3.4523815400    -2.0968261500     1.1147705700
| 59> *
| 60> 
| 61>                          ****END OF INPUT****
================================================================================

                       ****************************
                       * Single Point Calculation *
                       ****************************

---------------------------------
CARTESIAN COORDINATES (ANGSTROEM)
---------------------------------
  C     -4.976824   -0.227532   -1.875102
  C     -4.956465    0.384022   -0.470962
  C     -5.339257    1.867430   -0.587465
  C     -5.991823   -0.354954    0.391005
  C     -3.596493    0.277679    0.197687
  C     -3.418259    0.799201    1.480258
  C     -2.203228    0.720139    2.121873
  C     -1.104330    0.106168    1.512166
  C     -1.275320   -0.415937    0.231061
  C     -2.497510   -0.324924   -0.408324
  C      0.162206    0.056580    2.257879
  O      0.282104    0.565326    3.361427
  C      1.349617   -0.644837    1.627740
  C      1.995402    0.209182    0.541191
  O      1.420410    1.162521    0.046065
  C      3.354817   -0.176840    0.130629
  C      4.066227    0.705467   -0.686742
  C      5.348097    0.426658   -1.110403
  C      5.956589   -0.770097   -0.730147
  O      7.202619   -1.152874   -1.077435
  C      7.994657   -0.293356   -1.877301
  C      5.244438   -1.668934    0.075261
  C      3.970908   -1.378339    0.501321
  H     -4.739888   -1.288360   -1.844050
  H     -5.972137   -0.118337   -2.300347
  H     -4.273801    0.278936   -2.532250
  H     -5.415997    2.336684    0.389191
  H     -4.590356    2.404488   -1.165992
  H     -6.299574    1.964399   -1.088712
  H     -5.713643   -1.401244    0.499012
  H     -6.970582   -0.303562   -0.080297
  H     -6.067452    0.082139    1.382481
  H     -4.239780    1.278448    1.989815
  H     -2.074103    1.130113    3.113219
  H     -0.454143   -0.883485   -0.288918
  H     -2.581040   -0.737669   -1.400001
  H      1.046832   -1.596600    1.190483
  H      2.085056   -0.822965    2.414157
  H      3.587097    1.629005   -0.977159
  H      5.863643    1.139912   -1.732473
  H      8.944792   -0.809501   -1.999670
  H      7.536994   -0.131153   -2.856627
  H      8.160107    0.666603   -1.381385
  H      5.727013   -2.592780    0.352320
  H      3.452382   -2.096826    1.114771

----------------------------
CARTESIAN COORDINATES (A.U.)
----------------------------
  NO LB      ZA    FRAG     MASS         X           Y           Z
   0 C     6.0000    0    12.011   -9.404834   -0.429973   -3.543429
   1 C     6.0000    0    12.011   -9.366362    0.725697   -0.889989
   2 C     6.0000    0    12.011  -10.089733    3.528931   -1.110148
   3 C     6.0000    0    12.011  -11.322905   -0.670766    0.738892
   4 C     6.0000    0    12.011   -6.796387    0.524738    0.373575
   5 C     6.0000    0    12.011   -6.459574    1.510271    2.797282
   6 C     6.0000    0    12.011   -4.163498    1.360866    4.009758
   7 C     6.0000    0    12.011   -2.086882    0.200629    2.857579
   8 C     6.0000    0    12.011   -2.410006   -0.786007    0.436643
   9 C     6.0000    0    12.011   -4.719610   -0.614016   -0.771620
  10 C     6.0000    0    12.011    0.306526    0.106920    4.266773
  11 O     8.0000    0    15.999    0.533100    1.068312    6.352177
  12 C     6.0000    0    12.011    2.550406   -1.218565    3.075983
  13 C     6.0000    0    12.011    3.770763    0.395297    1.022702
  14 O     8.0000    0    15.999    2.684185    2.196847    0.087050
  15 C     6.0000    0    12.011    6.339686   -0.334180    0.246852
  16 C     6.0000    0    12.011    7.684055    1.333140   -1.297754
  17 C     6.0000    0    12.011   10.106438    0.806267   -2.098358
  18 C     6.0000    0    12.011   11.256323   -1.455272   -1.379777
  19 O     8.0000    0    15.999   13.610978   -2.178616   -2.036057
  20 C     6.0000    0    12.011   15.107713   -0.554362   -3.547585
  21 C     6.0000    0    12.011    9.910552   -3.153828    0.142223
  22 C     6.0000    0    12.011    7.503929   -2.604684    0.947359
  23 H     1.0000    0     1.008   -8.957090   -2.434647   -3.484750
  24 H     1.0000    0     1.008  -11.285704   -0.223625   -4.347025
  25 H     1.0000    0     1.008   -8.076313    0.527113   -4.785259
  26 H     1.0000    0     1.008  -10.234750    4.415693    0.735464
  27 H     1.0000    0     1.008   -8.674516    4.543825   -2.203406
  28 H     1.0000    0     1.008  -11.904470    3.712176   -2.057367
  29 H     1.0000    0     1.008  -10.797221   -2.647967    0.942996
  30 H     1.0000    0     1.008  -13.172491   -0.573648   -0.151740
  31 H     1.0000    0     1.008  -11.465822    0.155221    2.612511
  32 H     1.0000    0     1.008   -8.012024    2.415916    3.760206
  33 H     1.0000    0     1.008   -3.919486    2.135604    5.883131
  34 H     1.0000    0     1.008   -0.858206   -1.669545   -0.545976
  35 H     1.0000    0     1.008   -4.877459   -1.393992   -2.645618
  36 H     1.0000    0     1.008    1.978225   -3.017138    2.249686
  37 H     1.0000    0     1.008    3.940185   -1.555179    4.562095
  38 H     1.0000    0     1.008    6.778631    3.078374   -1.846563
  39 H     1.0000    0     1.008   11.080679    2.154122   -3.273899
  40 H     1.0000    0     1.008   16.903207   -1.529735   -3.778828
  41 H     1.0000    0     1.008   14.242854   -0.247844   -5.398242
  42 H     1.0000    0     1.008   15.420367    1.259697   -2.610439
  43 H     1.0000    0     1.008   10.822487   -4.899643    0.665787
  44 H     1.0000    0     1.008    6.524056   -3.962427    2.106611

--------------------------------
INTERNAL COORDINATES (ANGSTROEM)
--------------------------------
 C      0   0   0     0.000000000000     0.00000000     0.00000000
 C      1   0   0     1.531672969925     0.00000000     0.00000000
 C      2   1   0     1.536424249920   108.22018036     0.00000000
 C      2   1   3     1.536567475369   108.25724185   118.97282119
 C      2   1   3     1.519185631252   112.79523109   239.44720332
 C      5   2   1     1.395972392898   119.50682455   179.58659541
 C      6   5   2     1.376307062614   121.30343897   179.83393271
 C      7   6   5     1.398670518846   121.03789198   359.63607015
 C      8   7   6     1.393936897780   117.94829808     0.39181602
 C      9   8   7     1.382333091372   120.59027377     0.00000000
 C      8   7   6     1.470599405605   118.06076597   180.08632573
 O     11   8   7     1.221072247904   121.92392323   357.85895474
 C     11   8   7     1.516246703996   118.64085661   178.07326051
 C     13  11   8     1.525442796077   111.62699605    76.37969480
 O     14  13  11     1.218450334877   121.85030315   343.50139821
 C     14  13  11     1.471592543918   116.29133614   163.10654403
 C     16  14  13     1.397377904792   117.89540024   190.76893629
 C     17  16  14     1.378555125322   121.69924068   179.57131572
 C     18  17  16     1.395378339045   119.68311439     0.62286928
 O     19  18  17     1.348969312376   125.17022914   180.14780898
 C     20  19  18     1.416291645459   119.32410566     0.81128183
 C     19  18  17     1.401338747868   119.02061294     0.20972815
 C     22  19  18     1.373990715003   120.90396710   359.28919144
 H      1   2   3     1.087409325329   111.12708802   181.65497638
 H      1   2   3     1.087844355613   109.29552536   300.70903514
 H      1   2   3     1.087471664105   111.06510846    59.73056198
 H      3   2   1     1.086252527165   111.50064568   175.62519369
 H      3   2   1     1.088107715538   110.20496227   295.88677215
 H      3   2   1     1.087594209570   109.93888725    55.53830068
 H      4   2   1     1.088012609465   110.23634128    63.47554426
 H      4   2   1     1.087536344972   109.91246838   303.82854822
 H      4   2   1     1.086183966477   111.43476514   183.77013977
 H      6   5   2     1.078991490814   120.17306721   359.69297333
 H      7   6   5     1.080517496464   120.75826745   179.76866960
 H      9   8   7     1.078569377997   120.80040911   178.90607177
 H     10   9   8     1.077385110838   117.97391416   179.65595453
 H     13  11   8     1.090287553344   110.67183961   315.16587763
 H     13  11   8     1.091353174296   107.68388800   195.52271294
 H     17  16  14     1.080198815691   118.11715869     0.11966315
 H     18  17  16     1.077724140115   119.23241493   180.57983791
 H     21  20  19     1.088180342408   105.30419961   178.88835651
 H     21  20  19     1.093089431558   111.21649168   297.51061393
 H     21  20  19     1.093081215401   111.18565750    60.26741660
 H     22  19  18     1.078485395906   118.01467247   179.46946189
 H     23  22  19     1.077689138448   118.78177113   179.64288249

---------------------------
INTERNAL COORDINATES (A.U.)
---------------------------
 C      0   0   0     0.000000000000     0.00000000     0.00000000
 C      1   0   0     2.894442439889     0.00000000     0.00000000
 C      2   1   0     2.903421057865   108.22018036     0.00000000
 C      2   1   3     2.903691714738   108.25724185   118.97282119
 C      2   1   3     2.870844789654   112.79523109   239.44720332
 C      5   2   1     2.638005513092   119.50682455   179.58659541
 C      6   5   2     2.600843424523   121.30343897   179.83393271
 C      7   6   5     2.643104232209   121.03789198   359.63607015
 C      8   7   6     2.634158984772   117.94829808     0.39181602
 C      9   8   7     2.612230968550   120.59027377     0.00000000
 C      8   7   6     2.779030129301   118.06076597   180.08632573
 O     11   8   7     2.307492138270   121.92392323   357.85895474
 C     11   8   7     2.865291022013   118.64085661   178.07326051
 C     13  11   8     2.882669117549   111.62699605    76.37969480
 O     14  13  11     2.302537440703   121.85030315   343.50139821
 C     14  13  11     2.780906888725   116.29133614   163.10654403
 C     16  14  13     2.640661545650   117.89540024   190.76893629
 C     17  16  14     2.605091647371   121.69924068   179.57131572
 C     18  17  16     2.636882914001   119.68311439     0.62286928
 O     19  18  17     2.549182563455   125.17022914   180.14780898
 C     20  19  18     2.676403335678   119.32410566     0.81128183
 C     19  18  17     2.648146454323   119.02061294     0.20972815
 C     22  19  18     2.596466161906   120.90396710   359.28919144
 H      1   2   3     2.054905820345   111.12708802   181.65497638
 H      1   2   3     2.055727908440   109.29552536   300.70903514
 H      1   2   3     2.055023623558   111.06510846    59.73056198
 H      3   2   1     2.052719788621   111.50064568   175.62519369
 H      3   2   1     2.056225586574   110.20496227   295.88677215
 H      3   2   1     2.055255200925   109.93888725    55.53830068
 H      4   2   1     2.056045862143   110.23634128    63.47554426
 H      4   2   1     2.055145852683   109.91246838   303.82854822
 H      4   2   1     2.052590227698   111.43476514   183.77013977
 H      6   5   2     2.038998418470   120.17306721   359.69297333
 H      7   6   5     2.041882151227   120.75826745   179.76866960
 H      9   8   7     2.038200740848   120.80040911   178.90607177
 H     10   9   8     2.035962800247   117.97391416   179.65595453
 H     13  11   8     2.060344883044   110.67183961   315.16587763
 H     13  11   8     2.062358614806   107.68388800   195.52271294
 H     17  16  14     2.041279931843   118.11715869     0.11966315
 H     18  17  16     2.036603472734   119.23241493   180.57983791
 H     21  20  19     2.056362831469   105.30419961   178.88835651
 H     21  20  19     2.065639665529   111.21649168   297.51061393
 H     21  20  19     2.065624139241   111.18565750    60.26741660
 H     22  19  18     2.038042037696   118.01467247   179.46946189
 H     23  22  19     2.036537329169   118.78177113   179.64288249

---------------------
BASIS SET INFORMATION
---------------------
There are 3 groups of distinct atoms

 Group   1 Type C   : 7s4p1d contracted to 3s2p1d pattern {511/31/1}
 Group   2 Type O   : 7s4p1d contracted to 3s2p1d pattern {511/31/1}
 Group   3 Type H   : 4s1p contracted to 2s1p pattern {31/1}

Atom   0C    basis set group =>   1
Atom   1C    basis set group =>   1
Atom   2C    basis set group =>   1
Atom   3C    basis set group =>   1
Atom   4C    basis set group =>   1
Atom   5C    basis set group =>   1
Atom   6C    basis set group =>   1
Atom   7C    basis set group =>   1
Atom   8C    basis set group =>   1
Atom   9C    basis set group =>   1
Atom  10C    basis set group =>   1
Atom  11O    basis set group =>   2
Atom  12C    basis set group =>   1
Atom  13C    basis set group =>   1
Atom  14O    basis set group =>   2
Atom  15C    basis set group =>   1
Atom  16C    basis set group =>   1
Atom  17C    basis set group =>   1
Atom  18C    basis set group =>   1
Atom  19O    basis set group =>   2
Atom  20C    basis set group =>   1
Atom  21C    basis set group =>   1
Atom  22C    basis set group =>   1
Atom  23H    basis set group =>   3
Atom  24H    basis set group =>   3
Atom  25H    basis set group =>   3
Atom  26H    basis set group =>   3
Atom  27H    basis set group =>   3
Atom  28H    basis set group =>   3
Atom  29H    basis set group =>   3
Atom  30H    basis set group =>   3
Atom  31H    basis set group =>   3
Atom  32H    basis set group =>   3
Atom  33H    basis set group =>   3
Atom  34H    basis set group =>   3
Atom  35H    basis set group =>   3
Atom  36H    basis set group =>   3
Atom  37H    basis set group =>   3
Atom  38H    basis set group =>   3
Atom  39H    basis set group =>   3
Atom  40H    basis set group =>   3
Atom  41H    basis set group =>   3
Atom  42H    basis set group =>   3
Atom  43H    basis set group =>   3
Atom  44H    basis set group =>   3
---------------------------------
AUXILIARY/J BASIS SET INFORMATION
---------------------------------
There are 3 groups of distinct atoms

 Group   1 Type C   : 12s5p4d2f1g contracted to 6s4p3d1f1g pattern {711111/2111/211/2/1}
 Group   2 Type O   : 12s5p4d2f1g contracted to 6s4p3d1f1g pattern {711111/2111/211/2/1}
 Group   3 Type H   : 5s2p1d contracted to 3s1p1d pattern {311/2/1}

Atom   0C    basis set group =>   1
Atom   1C    basis set group =>   1
Atom   2C    basis set group =>   1
Atom   3C    basis set group =>   1
Atom   4C    basis set group =>   1
Atom   5C    basis set group =>   1
Atom   6C    basis set group =>   1
Atom   7C    basis set group =>   1
Atom   8C    basis set group =>   1
Atom   9C    basis set group =>   1
Atom  10C    basis set group =>   1
Atom  11O    basis set group =>   2
Atom  12C    basis set group =>   1
Atom  13C    basis set group =>   1
Atom  14O    basis set group =>   2
Atom  15C    basis set group =>   1
Atom  16C    basis set group =>   1
Atom  17C    basis set group =>   1
Atom  18C    basis set group =>   1
Atom  19O    basis set group =>   2
Atom  20C    basis set group =>   1
Atom  21C    basis set group =>   1
Atom  22C    basis set group =>   1
Atom  23H    basis set group =>   3
Atom  24H    basis set group =>   3
Atom  25H    basis set group =>   3
Atom  26H    basis set group =>   3
Atom  27H    basis set group =>   3
Atom  28H    basis set group =>   3
Atom  29H    basis set group =>   3
Atom  30H    basis set group =>   3
Atom  31H    basis set group =>   3
Atom  32H    basis set group =>   3
Atom  33H    basis set group =>   3
Atom  34H    basis set group =>   3
Atom  35H    basis set group =>   3
Atom  36H    basis set group =>   3
Atom  37H    basis set group =>   3
Atom  38H    basis set group =>   3
Atom  39H    basis set group =>   3
Atom  40H    basis set group =>   3
Atom  41H    basis set group =>   3
Atom  42H    basis set group =>   3
Atom  43H    basis set group =>   3
Atom  44H    basis set group =>   3


           ************************************************************
           *        Program running with 4 parallel MPI-processes     *
           *              working on a common directory               *
           ************************************************************
------------------------------------------------------------------------------
                             ORCA STARTUP CALCULATIONS
                           -- RI-GTO INTEGRALS CHOSEN --
------------------------------------------------------------------------------
------------------------------------------------------------------------------
                   ___                                                        
                  /   \      - P O W E R E D   B Y -                         
                 /     \                                                     
                 |  |  |   _    _      __       _____    __    __             
                 |  |  |  | |  | |    /  \     |  _  \  |  |  /  |          
                  \  \/   | |  | |   /    \    | | | |  |  | /  /          
                 / \  \   | |__| |  /  /\  \   | |_| |  |  |/  /          
                |  |  |   |  __  | /  /__\  \  |    /   |      \           
                |  |  |   | |  | | |   __   |  |    \   |  |\   \          
                \     /   | |  | | |  |  |  |  | |\  \  |  | \   \       
                 \___/    |_|  |_| |__|  |__|  |_| \__\ |__|  \__/        
                                                                              
                      - O R C A' S   B I G   F R I E N D -                    
                                      &                                       
                       - I N T E G R A L  F E E D E R -                       
                                                                              
 v1 FN, 2020, v2 2021, v3 2022-2024                                           
------------------------------------------------------------------------------


----------------------
SHARK INTEGRAL PACKAGE
----------------------

Number of atoms                             ...     45
Number of basis functions                   ...    432
Number of shells                            ...    204
Maximum angular momentum                    ...      2
Integral batch strategy                     ... SHARK/LIBINT Hybrid
RI-J (if used) integral strategy            ... SPLIT-RIJ (Revised 2003 algorithm where possible)
Printlevel                                  ...      1
Contraction scheme used                     ... SEGMENTED contraction
Prescreening option                         ... SCHWARTZ
   Thresh                                   ... 2.500e-11
   Tcut                                     ... 2.500e-12
   Tpresel                                  ... 2.500e-12 
Coulomb Range Separation                    ... NOT USED
Exchange Range Separation                   ... NOT USED
Multipole approximations                    ... NOT USED
Finite Nucleus Model                        ... NOT USED
CABS basis                                  ... NOT available
Auxiliary Coulomb fitting basis             ... AVAILABLE
   # of basis functions in Aux-J            ...   1369
   # of shells in Aux-J                     ...    455
   Maximum angular momentum in Aux-J        ...      4
Auxiliary J/K fitting basis                 ... NOT available
Auxiliary Correlation fitting basis         ... NOT available
Auxiliary 'external' fitting basis          ... NOT available

Checking pre-screening integrals            ... done (  0.0 sec) Dimension = 204
   => SHARK Basis and OBASIS are compatible. Storing Pre-screening
Shell pair information
Shell pair cut-off parameter TPreSel        ...   2.5e-12
Total number of shell pairs                 ...     20910
Shell pairs after pre-screening             ...     12787
Total number of primitive shell pairs       ...     75056
Primitive shell pairs kept                  ...     29877
          la=0 lb=0:   4038 shell pairs
          la=1 lb=0:   4783 shell pairs
          la=1 lb=1:   1465 shell pairs
          la=2 lb=0:   1480 shell pairs
          la=2 lb=1:    880 shell pairs
          la=2 lb=2:    141 shell pairs

Checking whether 4 symmetric matrices of dimension 432 fit in memory
:Max Core in MB      =   2500.00
 MB in use           =     15.91
 MB left             =   2484.09
 MB needed           =      2.85
 Data fit in memory  = YES
Calculating RI/J V-Matrix + Cholesky decomp.... done (  0.1 sec)
Calculating Nuclear repulsion               ... done (  0.0 sec) ENN=   1767.718412837590 Eh

Diagonalization of the overlap matrix:
Smallest eigenvalue                        ... 2.462e-04
Time for diagonalization                   ...    0.020 sec
Threshold for overlap eigenvalues          ... 1.000e-07
Number of eigenvalues below threshold      ... 0
Time for construction of square roots      ...    0.014 sec
Total time needed                          ...    0.037 sec

-------------------
DFT GRID GENERATION
-------------------

General Integration Accuracy     IntAcc      ... 4.388
Radial Grid Type                 RadialGrid  ... OptM3 with GC (2021)
Angular Grid (max. ang.)         AngularGrid ... 4 (Lebedev-302)
Angular grid pruning method      GridPruning ... 4 (adaptive)
Weight generation scheme         WeightScheme... mBecke (2022)
Basis function cutoff            BFCut       ... 1.0000e-11
Integration weight cutoff        WCut        ... 1.0000e-14
Partially contracted basis set               ... off
Rotationally invariant grid construction     ... off
Angular grids for H and He will be reduced by one unit

Total number of grid points                  ...   207536
Total number of batches                      ...     3262
Average number of points per batch           ...       63
Average number of grid points per atom       ...     4612

--------------------
COSX GRID GENERATION
--------------------

GRIDX 1
-------
General Integration Accuracy     IntAcc      ... 3.816
Radial Grid Type                 RadialGrid  ... OptM3 with GC (2021)
Angular Grid (max. ang.)         AngularGrid ... 1 (Lebedev-50)
Angular grid pruning method      GridPruning ... 4 (adaptive)
Weight generation scheme         WeightScheme... mBecke (2022)
Basis function cutoff            BFCut       ... 1.0000e-11
Integration weight cutoff        WCut        ... 1.0000e-14
Partially contracted basis set               ... on
Rotationally invariant grid construction     ... off
Angular grids for H and He will be reduced by one unit

Total number of grid points                  ...    26409
Total number of batches                      ...      232
Average number of points per batch           ...      113
Average number of grid points per atom       ...      587
UseSFitting                                  ... on

GRIDX 2
-------
General Integration Accuracy     IntAcc      ... 4.020
Radial Grid Type                 RadialGrid  ... OptM3 with GC (2021)
Angular Grid (max. ang.)         AngularGrid ... 2 (Lebedev-110)
Angular grid pruning method      GridPruning ... 4 (adaptive)
Weight generation scheme         WeightScheme... mBecke (2022)
Basis function cutoff            BFCut       ... 1.0000e-11
Integration weight cutoff        WCut        ... 1.0000e-14
Partially contracted basis set               ... on
Rotationally invariant grid construction     ... off
Angular grids for H and He will be reduced by one unit

Total number of grid points                  ...    56703
Total number of batches                      ...      468
Average number of points per batch           ...      121
Average number of grid points per atom       ...     1260
UseSFitting                                  ... on

GRIDX 3
-------
General Integration Accuracy     IntAcc      ... 4.338
Radial Grid Type                 RadialGrid  ... OptM3 with GC (2021)
Angular Grid (max. ang.)         AngularGrid ... 3 (Lebedev-194)
Angular grid pruning method      GridPruning ... 4 (adaptive)
Weight generation scheme         WeightScheme... mBecke (2022)
Basis function cutoff            BFCut       ... 1.0000e-11
Integration weight cutoff        WCut        ... 1.0000e-14
Partially contracted basis set               ... on
Rotationally invariant grid construction     ... off
Angular grids for H and He will be reduced by one unit

Total number of grid points                  ...   123766
Total number of batches                      ...      991
Average number of points per batch           ...      124
Average number of grid points per atom       ...     2750
UseSFitting                                  ... on
Grids setup in   4.0 sec
Initializing property integral containers    ... done (  0.1 sec)

SHARK setup successfully completed in   4.5 seconds

Maximum memory used throughout the entire STARTUP-calculation: 59.4 MB


           ************************************************************
           *        Program running with 4 parallel MPI-processes     *
           *              working on a common directory               *
           ************************************************************
-------------------------------------------------------------------------------
                                 ORCA GUESS
                   Start orbitals & Density for SCF / CASSCF
-------------------------------------------------------------------------------

------------
SCF SETTINGS
------------
Hamiltonian:
 Density Functional     Method          .... DFT(GTOs)
 Exchange Functional    Exchange        .... B88
   X-Alpha parameter    XAlpha          ....  0.666667
   Becke's b parameter  XBeta           ....  0.004200
 Correlation Functional Correlation     .... LYP
 LDA part of GGA corr.  LDAOpt          .... VWN-5
 Gradients option       PostSCFGGA      .... off
 Hybrid DFT is turned on
   Fraction HF Exchange ScalHFX         ....  0.200000
   Scaling of DF-GGA-X  ScalDFX         ....  0.720000
   Scaling of DF-GGA-C  ScalDFC         ....  0.810000
   Scaling of DF-LDA-C  ScalLDAC        ....  1.000000
   Perturbative correction              ....  0.000000
   NL short-range parameter             ....  4.800000
 RI-approximation to the Coulomb term is turned on
   Number of AuxJ basis functions       .... 1369
   RIJ-COSX (HFX calculated with COS-X)).... on


General Settings:
 Integral files         IntName         .... td
 Hartree-Fock type      HFTyp           .... RHF
 Total Charge           Charge          ....    0
 Multiplicity           Mult            ....    1
 Number of Electrons    NEL             ....  166
 Basis Dimension        Dim             ....  432
 Nuclear Repulsion      ENuc            ....   1767.7184128376 Eh

Convergence Acceleration:
 AO-DIIS                CNVDIIS         .... on
   Start iteration      DIISMaxIt       ....    12
   Startup error        DIISStart       ....  0.200000
   # of expansion vecs  DIISMaxEq       ....     5
   Bias factor          DIISBfac        ....   1.050
   Max. coefficient     DIISMaxC        ....  10.000
 MO-DIIS                CNVKDIIS        .... off
 Trust-Rad. Augm. Hess. CNVTRAH         .... auto
   Auto Start mean grad. ratio tolernc. ....  1.125000
   Auto Start start iteration           ....    50
   Auto Start num. interpolation iter.  ....    10
   Max. Number of Micro iterations      ....    24
   Max. Number of Macro iterations      .... Maxiter - #DIIS iter
   Number of Davidson start vectors     ....     2
   Converg. threshold    (grad. norm)   ....   1.000e-05
   Grad. Scal. Fac. for Micro threshold ....   0.100
   Minimum threshold for Micro iter.    ....   1.000e-02
   NR start threshold (gradient norm)   ....   1.000e-04
   Initial trust radius                 ....   0.400
   Minimum AH scaling param. (alpha)    ....   1.000
   Maximum AH scaling param. (alpha)    .... 1000.000
   Quad. conv. algorithm                .... NR
   White noise on init. David. guess    .... on
   Maximum white noise                  ....   0.010
   Pseudo random numbers                .... off
   Inactive MOs                         .... canonical
   Orbital update algorithm             .... Taylor
   Preconditioner                       .... Diag
   Full preconditioner red. dimension   ....   250
 SOSCF                 CNVSOSCF           .... on
   Start iteration     SOSCFMaxIt         ....   150
   Startup grad/error  SOSCFStart         ....  0.003300
   Hessian update      SOSCFHessUp        .... L-BFGS
   Autom. constraints  SOSCFAutoConstrain .... off
 Level Shifting         CNVShift        .... on
   Level shift para.    LevelShift      ....    0.2500
   Turn off err/grad.   ShiftErr        ....    0.0010
 Zerner damping         CNVZerner       .... off
 Static damping         CNVDamp         .... on
   Fraction old density DampFac         ....    0.7000
   Max. Damping (<1)    DampMax         ....    0.9800
   Min. Damping (>=0)   DampMin         ....    0.0000
   Turn off err/grad.   DampErr         ....    0.1000

SCF Procedure:
 Maximum # iterations   MaxIter         ....   300
 SCF integral mode      SCFMode         .... Direct
   Integral package                     .... SHARK and LIBINT hybrid scheme
 Reset frequency        DirectResetFreq ....    20
 Integral Threshold     Thresh          ....  2.500e-11 Eh
 Primitive CutOff       TCut            ....  2.500e-12 Eh

Convergence Tolerance:
 Convergence Check Mode ConvCheckMode   .... Total+1el-Energy
 Convergence forced     ConvForced      .... 1
 Energy Change          TolE            ....  1.000e-08 Eh
 1-El. energy change                    ....  1.000e-05 Eh
 Orbital Gradient       TolG            ....  1.000e-05
 Orbital Rotation angle TolX            ....  1.000e-05
 DIIS Error             TolErr          ....  5.000e-07

------------------------------
INITIAL GUESS: MODEL POTENTIAL
------------------------------
Loading Hartree-Fock densities                     ... done
Calculating cut-offs                               ... done
Initializing the effective Hamiltonian             ... done
Setting up the integral package (SHARK)            ... done
Starting the Coulomb interaction                   ... done (   0.5 sec)
Making the grid                                    ... done (   0.6 sec)
Mapping shells                                     ... done
Starting the XC term evaluation                    ... done (   0.4 sec)
  promolecular density results
     # of electrons  =    165.980229832
     EX              =   -134.031029401
     EC              =     -5.600812660
     EX+EC           =   -139.631842062
Transforming the Hamiltonian                       ... done (   0.0 sec)
Diagonalizing the Hamiltonian                      ... done (   0.0 sec)
Back transforming the eigenvectors                 ... done (   0.0 sec)
Now organizing SCF variables                       ... done
                      ------------------
                      INITIAL GUESS DONE (   1.6 sec)
                      ------------------
             **** ENERGY FILE WAS UPDATED (td.en.tmp) ****
Finished Guess after   1.8 sec
Maximum memory used throughout the entire GUESS-calculation: 22.3 MB


           ************************************************************
           *        Program running with 4 parallel MPI-processes     *
           *              working on a common directory               *
           ************************************************************

-------------------------------------------------------------------------------------------
                                      ORCA LEAN-SCF
                              memory conserving SCF solver
-------------------------------------------------------------------------------------------

--------------------
CPCM SOLVATION MODEL
--------------------
CPCM parameters:
  Epsilon                                         ...      25.4510
  Refrac                                          ...       1.3611
  Rsolv                                           ...       1.3000
  Surface type                                    ... GAUSSIAN VDW
  Discretization scheme                           ... Constant charge density
    Threshold for H atoms                         ...       5.0000 (charges/Ang^2)
    Threshold for non-H atoms                     ...       5.0000 (charges/Ang^2)
  Epsilon function type                           ...         CPCM
Solvent:                                          ... ETHANOL
Radii:
  Scheme                                          ... Element-dependent radii
  Radius for C  used is    3.8550 Bohr (=   2.0400 Ang.)
  Radius for O  used is    3.4469 Bohr (=   1.8240 Ang.)
  Radius for H  used is    2.4944 Bohr (=   1.3200 Ang.)
Calculating surface                               ...        done! (  0.0s)
Cavity surface points                             ...         3783
Cavity Volume                                     ...    2621.5127
Cavity Surface-area                               ...    1339.6925
Calculating surface distance matrix               ...        done! (  0.1s)
Performing Cholesky decomposition & store         ...        done! (  0.7s)
Overall time for CPCM initialization              ...                 0.8s

----------------------------------------D-I-I-S--------------------------------------------
Iteration    Energy (Eh)           Delta-E    RMSDP     MaxDP     DIISErr   Damp  Time(sec)
-------------------------------------------------------------------------------------------
               ***  Starting incremental Fock matrix formation  ***
    1    -999.1656145483655109     0.00e+00  5.07e-03  1.24e-01  2.44e-01  0.700  13.2
    2    -999.4225980807793803    -2.57e-01  3.47e-03  8.86e-02  9.62e-02  0.700   7.1
                               ***Turning on AO-DIIS***
    3    -999.5275382006750533    -1.05e-01  1.49e-03  2.15e-02  3.45e-02  0.700   7.0
    4    -999.5905563020767204    -6.30e-02  2.74e-03  3.36e-02  1.73e-02  0.000   6.3
    5    -999.7267963917181532    -1.36e-01  4.30e-04  1.05e-02  6.55e-03  0.000   6.7
                              *** Initializing SOSCF ***
---------------------------------------S-O-S-C-F--------------------------------------
Iteration    Energy (Eh)           Delta-E    RMSDP     MaxDP     MaxGrad    Time(sec)
--------------------------------------------------------------------------------------
    6    -999.7276464677227068    -8.50e-04  1.51e-04  5.38e-03  1.52e-03     5.9
               *** Restarting incremental Fock matrix formation ***
    7    -999.7274613560973648     1.85e-04  9.79e-05  3.49e-03  2.26e-04    12.8
    8    -999.7274628344609937    -1.48e-06  3.36e-05  8.87e-04  3.02e-04     8.7
    9    -999.7274674797615717    -4.65e-06  2.61e-05  9.74e-04  1.11e-04     7.9
   10    -999.7274673753388470     1.04e-07  1.13e-05  3.59e-04  7.36e-05     7.4
   11    -999.7274680073098807    -6.32e-07  4.39e-06  1.06e-04  1.50e-05     6.6
   12    -999.7274679926078989     1.47e-08  2.72e-06  6.81e-05  2.22e-05     5.7
   13    -999.7274680226817054    -3.01e-08  8.58e-07  2.32e-05  2.24e-06     5.5
                  *** Gradient check signals convergence ***

               *****************************************************
               *                     SUCCESS                       *
               *           SCF CONVERGED AFTER  13 CYCLES          *
               *****************************************************

Recomputing exchange energy using gridx3       ... done (   18.899 sec)
Old exchange energy                            :    -27.237231633 Eh
New exchange energy                            :    -27.237350905 Eh
Exchange energy change after final integration :     -0.000119273 Eh
Total energy after final integration           :   -999.727587300 Eh
             **** ENERGY FILE WAS UPDATED (td.en.tmp) ****

----------------
TOTAL SCF ENERGY
----------------

Total Energy       :       -999.72758730045280 Eh          -27203.97067 eV

Components:
Nuclear Repulsion  :       1767.71841283759045 Eh           48102.06347 eV
Electronic Energy  :      -2767.42351500280574 Eh          -75305.42230 eV
One Electron Energy:      -4868.92062451241327 Eh         -132490.06586 eV
Two Electron Energy:       2101.49710950960753 Eh           57184.64356 eV
CPCM Dielectric    :         -0.02236586251504 Eh              -0.60861 eV

Virial components:
Potential Energy   :      -1990.15437006673392 Eh          -54154.85359 eV
Kinetic Energy     :        990.42678276628124 Eh           26950.88292 eV
Virial Ratio       :          2.00939070378145

DFT components:
N(Alpha)           :       83.000001145956 electrons
N(Beta)            :       83.000001145956 electrons
N(Total)           :      166.000002291911 electrons
E(X)               :     -108.144371903034 Eh       
E(C)               :       -6.600535612167 Eh       
E(XC)              :     -114.744907515201 Eh       

CPCM Solvation Model Properties:
Surface-charge          :         -0.03103176127530
Corrected charge        :         -0.00000000000000
Outlying charge corr.   :          0.00004575713906 Eh               0.00125 eV
Free-energy (cav+disp)  :  This term is not implemented in the current solvation scheme

---------------
SCF CONVERGENCE
---------------

  Last Energy change         ...    3.0074e-08  Tolerance :   1.0000e-08
  Last MAX-Density change    ...    2.3236e-05  Tolerance :   1.0000e-07
  Last RMS-Density change    ...    8.5842e-07  Tolerance :   5.0000e-09
  Last DIIS Error            ...    1.5210e-03  Tolerance :   5.0000e-07
  Last Orbital Gradient      ...    2.2431e-06  Tolerance :   1.0000e-05
  Last Orbital Rotation      ...    7.7657e-06  Tolerance :   1.0000e-05


----------------
ORBITAL ENERGIES
----------------

  NO   OCC          E(Eh)            E(eV) 
   0   2.0000     -19.171263      -521.6766 
   1   2.0000     -19.126332      -520.4539 
   2   2.0000     -19.123417      -520.3746 
   3   2.0000     -10.278882      -279.7026 
   4   2.0000     -10.273579      -279.5583 
   5   2.0000     -10.258241      -279.1409 
   6   2.0000     -10.234335      -278.4904 
   7   2.0000     -10.198352      -277.5113 
   8   2.0000     -10.196149      -277.4513 
   9   2.0000     -10.195347      -277.4295 
  10   2.0000     -10.193702      -277.3847 
  11   2.0000     -10.192501      -277.3520 
  12   2.0000     -10.190081      -277.2862 
  13   2.0000     -10.189557      -277.2719 
  14   2.0000     -10.189202      -277.2623 
  15   2.0000     -10.188258      -277.2366 
  16   2.0000     -10.187872      -277.2261 
  17   2.0000     -10.187715      -277.2218 
  18   2.0000     -10.183204      -277.0991 
  19   2.0000     -10.182943      -277.0920 
  20   2.0000     -10.167160      -276.6625 
  21   2.0000     -10.167062      -276.6598 
  22   2.0000     -10.165353      -276.6133 
  23   2.0000      -1.066461       -29.0199 
  24   2.0000      -1.037443       -28.2303 
  25   2.0000      -1.027798       -27.9678 
  26   2.0000      -0.863848       -23.5065 
  27   2.0000      -0.860901       -23.4263 
  28   2.0000      -0.814476       -22.1630 
  29   2.0000      -0.781194       -21.2574 
  30   2.0000      -0.761677       -20.7263 
  31   2.0000      -0.752178       -20.4678 
  32   2.0000      -0.744158       -20.2496 
  33   2.0000      -0.731385       -19.9020 
  34   2.0000      -0.700373       -19.0581 
  35   2.0000      -0.675873       -18.3914 
  36   2.0000      -0.675623       -18.3846 
  37   2.0000      -0.640007       -17.4155 
  38   2.0000      -0.618083       -16.8189 
  39   2.0000      -0.610697       -16.6179 
  40   2.0000      -0.599274       -16.3071 
  41   2.0000      -0.566673       -15.4200 
  42   2.0000      -0.548040       -14.9129 
  43   2.0000      -0.545600       -14.8465 
  44   2.0000      -0.534975       -14.5574 
  45   2.0000      -0.506081       -13.7712 
  46   2.0000      -0.492991       -13.4150 
  47   2.0000      -0.483755       -13.1636 
  48   2.0000      -0.474154       -12.9024 
  49   2.0000      -0.472813       -12.8659 
  50   2.0000      -0.469043       -12.7633 
  51   2.0000      -0.451235       -12.2787 
  52   2.0000      -0.448998       -12.2179 
  53   2.0000      -0.444667       -12.1000 
  54   2.0000      -0.437612       -11.9080 
  55   2.0000      -0.433648       -11.8001 
  56   2.0000      -0.430670       -11.7191 
  57   2.0000      -0.424900       -11.5621 
  58   2.0000      -0.421898       -11.4804 
  59   2.0000      -0.416812       -11.3420 
  60   2.0000      -0.413528       -11.2527 
  61   2.0000      -0.399994       -10.8844 
  62   2.0000      -0.395455       -10.7609 
  63   2.0000      -0.394811       -10.7434 
  64   2.0000      -0.385653       -10.4942 
  65   2.0000      -0.383594       -10.4381 
  66   2.0000      -0.372178       -10.1275 
  67   2.0000      -0.367310        -9.9950 
  68   2.0000      -0.362238        -9.8570 
  69   2.0000      -0.361283        -9.8310 
  70   2.0000      -0.355512        -9.6740 
  71   2.0000      -0.350649        -9.5416 
  72   2.0000      -0.331199        -9.0124 
  73   2.0000      -0.328988        -8.9522 
  74   2.0000      -0.327223        -8.9042 
  75   2.0000      -0.325508        -8.8575 
  76   2.0000      -0.314333        -8.5534 
  77   2.0000      -0.269112        -7.3229 
  78   2.0000      -0.267069        -7.2673 
  79   2.0000      -0.260542        -7.0897 
  80   2.0000      -0.255391        -6.9495 
  81   2.0000      -0.248155        -6.7526 
  82   2.0000      -0.234673        -6.3858 
  83   0.0000      -0.061261        -1.6670 
  84   0.0000      -0.055163        -1.5011 
  85   0.0000      -0.013938        -0.3793 
  86   0.0000      -0.008250        -0.2245 
  87   0.0000       0.036813         1.0017 
  88   0.0000       0.045478         1.2375 
  89   0.0000       0.062255         1.6940 
  90   0.0000       0.074138         2.0174 
  91   0.0000       0.081455         2.2165 
  92   0.0000       0.093449         2.5429 
  93   0.0000       0.097683         2.6581 
*Only the first 10 virtual orbitals were printed.

                    ********************************
                    * MULLIKEN POPULATION ANALYSIS *
                    ********************************

-----------------------
MULLIKEN ATOMIC CHARGES
-----------------------
   0 C :    0.113732
   1 C :   -0.269605
   2 C :    0.089790
   3 C :    0.091334
   4 C :    0.115532
   5 C :   -0.042276
   6 C :   -0.021881
   7 C :    0.035638
   8 C :    0.014906
   9 C :   -0.039838
  10 C :    0.060860
  11 O :   -0.243395
  12 C :    0.090917
  13 C :    0.015485
  14 O :   -0.246080
  15 C :    0.042094
  16 C :   -0.013289
  17 C :   -0.082506
  18 C :    0.249464
  19 O :   -0.317602
  20 C :    0.180113
  21 C :   -0.023107
  22 C :   -0.001796
  23 H :    0.007837
  24 H :    0.003914
  25 H :    0.007962
  26 H :    0.006391
  27 H :    0.006088
  28 H :    0.005598
  29 H :    0.005591
  30 H :    0.005615
  31 H :    0.006006
  32 H :   -0.006715
  33 H :   -0.022459
  34 H :   -0.011187
  35 H :   -0.019724
  36 H :    0.069870
  37 H :    0.039755
  38 H :   -0.012619
  39 H :   -0.004649
  40 H :    0.043845
  41 H :    0.038795
  42 H :    0.038866
  43 H :   -0.013808
  44 H :    0.006540
Sum of atomic charges:   -0.0000000

--------------------------------
MULLIKEN REDUCED ORBITAL CHARGES
--------------------------------
  0 C s       :     2.922241  s :     2.922241
      pz      :     0.972187  p :     2.935176
      px      :     0.980442
      py      :     0.982547
      dz2     :     0.006266  d :     0.028851
      dxz     :     0.007230
      dyz     :     0.004834
      dx2y2   :     0.007635
      dxy     :     0.002886

  1 C s       :     3.198931  s :     3.198931
      pz      :     1.015678  p :     3.018404
      px      :     0.982278
      py      :     1.020448
      dz2     :     0.010500  d :     0.052270
      dxz     :     0.011085
      dyz     :     0.010016
      dx2y2   :     0.012173
      dxy     :     0.008496

  2 C s       :     2.958447  s :     2.958447
      pz      :     0.994782  p :     2.922699
      px      :     0.984140
      py      :     0.943777
      dz2     :     0.004654  d :     0.029065
      dxz     :     0.005750
      dyz     :     0.006724
      dx2y2   :     0.006852
      dxy     :     0.005084

  3 C s       :     2.957496  s :     2.957496
      pz      :     0.978533  p :     2.922095
      px      :     0.965773
      py      :     0.977790
      dz2     :     0.007078  d :     0.029074
      dxz     :     0.005624
      dyz     :     0.004337
      dx2y2   :     0.008698
      dxy     :     0.003336

  4 C s       :     3.070650  s :     3.070650
      pz      :     0.923321  p :     2.770789
      px      :     0.927553
      py      :     0.919915
      dz2     :     0.010275  d :     0.043029
      dxz     :     0.011746
      dyz     :     0.006294
      dx2y2   :     0.007296
      dxy     :     0.007417

  5 C s       :     3.258387  s :     3.258387
      pz      :     0.933074  p :     2.748612
      px      :     0.857741
      py      :     0.957797
      dz2     :     0.008473  d :     0.035277
      dxz     :     0.010947
      dyz     :     0.005356
      dx2y2   :     0.004803
      dxy     :     0.005699

  6 C s       :     3.276583  s :     3.276583
      pz      :     0.824590  p :     2.709337
      px      :     0.956358
      py      :     0.928389
      dz2     :     0.007859  d :     0.035961
      dxz     :     0.009829
      dyz     :     0.004031
      dx2y2   :     0.006715
      dxy     :     0.007526

  7 C s       :     3.097366  s :     3.097366
      pz      :     0.901326  p :     2.827439
      px      :     0.926001
      py      :     1.000112
      dz2     :     0.009126  d :     0.039558
      dxz     :     0.012160
      dyz     :     0.006210
      dx2y2   :     0.006846
      dxy     :     0.005216

  8 C s       :     3.233268  s :     3.233268
      pz      :     0.933483  p :     2.715705
      px      :     0.855833
      py      :     0.926389
      dz2     :     0.008879  d :     0.036122
      dxz     :     0.010717
      dyz     :     0.005875
      dx2y2   :     0.004637
      dxy     :     0.006013

  9 C s       :     3.256615  s :     3.256615
      pz      :     0.833472  p :     2.748156
      px      :     0.937763
      py      :     0.976922
      dz2     :     0.008118  d :     0.035067
      dxz     :     0.009424
      dyz     :     0.004195
      dx2y2   :     0.006664
      dxy     :     0.006666

 10 C s       :     3.134345  s :     3.134345
      pz      :     0.908225  p :     2.710685
      px      :     0.976929
      py      :     0.825532
      dz2     :     0.022009  d :     0.094110
      dxz     :     0.033039
      dyz     :     0.017978
      dx2y2   :     0.009375
      dxy     :     0.011708

 11 O s       :     3.719862  s :     3.719862
      pz      :     1.352583  p :     4.506514
      px      :     1.765012
      py      :     1.388920
      dz2     :     0.006555  d :     0.017018
      dxz     :     0.003256
      dyz     :     0.005402
      dx2y2   :     0.000982
      dxy     :     0.000824

 12 C s       :     2.875815  s :     2.875815
      pz      :     0.984781  p :     3.004055
      px      :     0.974416
      py      :     1.044859
      dz2     :     0.003497  d :     0.029212
      dxz     :     0.008519
      dyz     :     0.006562
      dx2y2   :     0.005187
      dxy     :     0.005448

 13 C s       :     3.143464  s :     3.143464
      pz      :     0.889918  p :     2.745342
      px      :     0.945876
      py      :     0.909548
      dz2     :     0.015287  d :     0.095709
      dxz     :     0.013819
      dyz     :     0.019756
      dx2y2   :     0.024367
      dxy     :     0.022480

 14 O s       :     3.731309  s :     3.731309
      pz      :     1.508937  p :     4.497496
      px      :     1.628144
      py      :     1.360416
      dz2     :     0.002494  d :     0.017274
      dxz     :     0.002300
      dyz     :     0.003877
      dx2y2   :     0.004245
      dxy     :     0.004358

 15 C s       :     3.073873  s :     3.073873
      pz      :     1.001785  p :     2.845019
      px      :     0.927212
      py      :     0.916023
      dz2     :     0.005443  d :     0.039014
      dxz     :     0.006128
      dyz     :     0.006895
      dx2y2   :     0.010804
      dxy     :     0.009744

 16 C s       :     3.278729  s :     3.278729
      pz      :     0.926792  p :     2.698023
      px      :     0.899942
      py      :     0.871289
      dz2     :     0.005808  d :     0.036538
      dxz     :     0.007327
      dyz     :     0.004566
      dx2y2   :     0.008717
      dxy     :     0.010119

 17 C s       :     3.264143  s :     3.264143
      pz      :     0.966741  p :     2.785064
      px      :     0.910848
      py      :     0.907475
      dz2     :     0.003592  d :     0.033298
      dxz     :     0.006356
      dyz     :     0.005001
      dx2y2   :     0.008376
      dxy     :     0.009974

 18 C s       :     2.937787  s :     2.937787
      pz      :     0.944414  p :     2.736271
      px      :     0.816137
      py      :     0.975721
      dz2     :     0.010036  d :     0.076479
      dxz     :     0.016182
      dyz     :     0.009235
      dx2y2   :     0.021157
      dxy     :     0.019869

 19 O s       :     3.728016  s :     3.728016
      pz      :     1.628771  p :     4.572680
      px      :     1.307461
      py      :     1.636448
      dz2     :     0.002548  d :     0.016906
      dxz     :     0.002753
      dyz     :     0.003010
      dx2y2   :     0.003926
      dxy     :     0.004669

 20 C s       :     3.003967  s :     3.003967
      pz      :     0.924031  p :     2.763526
      px      :     0.924630
      py      :     0.914864
      dz2     :     0.010779  d :     0.052394
      dxz     :     0.010005
      dyz     :     0.011233
      dx2y2   :     0.008646
      dxy     :     0.011731

 21 C s       :     3.258713  s :     3.258713
      pz      :     0.992536  p :     2.731354
      px      :     0.881736
      py      :     0.857083
      dz2     :     0.004737  d :     0.033040
      dxz     :     0.006381
      dyz     :     0.004454
      dx2y2   :     0.007242
      dxy     :     0.010225

 22 C s       :     3.246716  s :     3.246716
      pz      :     0.910454  p :     2.718479
      px      :     0.893167
      py      :     0.914859
      dz2     :     0.003489  d :     0.036601
      dxz     :     0.007095
      dyz     :     0.006071
      dx2y2   :     0.009732
      dxy     :     0.010214

 23 H s       :     0.968159  s :     0.968159
      pz      :     0.004203  p :     0.024004
      px      :     0.005909
      py      :     0.013891

 24 H s       :     0.972238  s :     0.972238
      pz      :     0.005797  p :     0.023848
      px      :     0.012828
      py      :     0.005223

 25 H s       :     0.968038  s :     0.968038
      pz      :     0.008008  p :     0.024000
      px      :     0.009102
      py      :     0.006889

 26 H s       :     0.969469  s :     0.969469
      pz      :     0.012632  p :     0.024140
      px      :     0.005447
      py      :     0.006062

 27 H s       :     0.970146  s :     0.970146
      pz      :     0.007845  p :     0.023766
      px      :     0.009388
      py      :     0.006534

 28 H s       :     0.970459  s :     0.970459
      pz      :     0.007342  p :     0.023944
      px      :     0.012402
      py      :     0.004200

 29 H s       :     0.970646  s :     0.970646
      pz      :     0.005076  p :     0.023763
      px      :     0.005142
      py      :     0.013545

 30 H s       :     0.970439  s :     0.970439
      pz      :     0.006501  p :     0.023947
      px      :     0.012403
      py      :     0.005043

 31 H s       :     0.969871  s :     0.969871
      pz      :     0.012804  p :     0.024123
      px      :     0.004912
      py      :     0.006407

 32 H s       :     0.982828  s :     0.982828
      pz      :     0.006344  p :     0.023887
      px      :     0.010717
      py      :     0.006826

 33 H s       :     0.998681  s :     0.998681
      pz      :     0.013909  p :     0.023778
      px      :     0.004102
      py      :     0.005767

 34 H s       :     0.987367  s :     0.987367
      pz      :     0.006662  p :     0.023820
      px      :     0.010532
      py      :     0.006626

 35 H s       :     0.995700  s :     0.995700
      pz      :     0.013852  p :     0.024023
      px      :     0.003923
      py      :     0.006248

 36 H s       :     0.905403  s :     0.905403
      pz      :     0.006268  p :     0.024727
      px      :     0.005522
      py      :     0.012938

 37 H s       :     0.937036  s :     0.937036
      pz      :     0.010375  p :     0.023209
      px      :     0.008267
      py      :     0.004567

 38 H s       :     0.988744  s :     0.988744
      pz      :     0.004786  p :     0.023875
      px      :     0.006617
      py      :     0.012472

 39 H s       :     0.980433  s :     0.980433
      pz      :     0.008604  p :     0.024217
      px      :     0.006422
      py      :     0.009191

 40 H s       :     0.934024  s :     0.934024
      pz      :     0.004205  p :     0.022131
      px      :     0.011926
      py      :     0.005999

 41 H s       :     0.938162  s :     0.938162
      pz      :     0.013118  p :     0.023043
      px      :     0.005412
      py      :     0.004513

 42 H s       :     0.938078  s :     0.938078
      pz      :     0.005914  p :     0.023057
      px      :     0.004624
      py      :     0.012519

 43 H s       :     0.990069  s :     0.990069
      pz      :     0.005092  p :     0.023739
      px      :     0.006081
      py      :     0.012566

 44 H s       :     0.969600  s :     0.969600
      pz      :     0.008129  p :     0.023861
      px      :     0.006450
      py      :     0.009281



                     *******************************
                     * LOEWDIN POPULATION ANALYSIS *
                     *******************************

----------------------
LOEWDIN ATOMIC CHARGES
----------------------
   0 C :   -0.035629
   1 C :   -0.046622
   2 C :   -0.029303
   3 C :   -0.029138
   4 C :    0.015643
   5 C :   -0.023848
   6 C :    0.009022
   7 C :   -0.083339
   8 C :    0.004654
   9 C :   -0.032282
  10 C :    0.098944
  11 O :   -0.196702
  12 C :   -0.074452
  13 C :    0.096509
  14 O :   -0.196108
  15 C :   -0.100456
  16 C :    0.024159
  17 C :   -0.068962
  18 C :    0.067068
  19 O :   -0.096167
  20 C :    0.088977
  21 C :   -0.047769
  22 C :    0.006521
  23 H :    0.021212
  24 H :    0.024013
  25 H :    0.021373
  26 H :    0.020020
  27 H :    0.022029
  28 H :    0.022332
  29 H :    0.021847
  30 H :    0.022329
  31 H :    0.020000
  32 H :    0.030655
  33 H :    0.026994
  34 H :    0.032810
  35 H :    0.031507
  36 H :    0.060946
  37 H :    0.049902
  38 H :    0.031401
  39 H :    0.037938
  40 H :    0.032172
  41 H :    0.023011
  42 H :    0.023055
  43 H :    0.035359
  44 H :    0.038374

-------------------------------
LOEWDIN REDUCED ORBITAL CHARGES
-------------------------------
  0 C s       :     2.831481  s :     2.831481
      pz      :     1.017980  p :     3.130051
      px      :     1.061903
      py      :     1.050168
      dz2     :     0.016812  d :     0.074097
      dxz     :     0.017689
      dyz     :     0.012707
      dx2y2   :     0.019556
      dxy     :     0.007332

  1 C s       :     2.840840  s :     2.840840
      pz      :     1.031501  p :     3.086488
      px      :     1.019473
      py      :     1.035514
      dz2     :     0.024340  d :     0.119295
      dxz     :     0.026192
      dyz     :     0.021527
      dx2y2   :     0.028873
      dxy     :     0.018363

  2 C s       :     2.833623  s :     2.833623
      pz      :     1.060043  p :     3.121453
      px      :     1.056326
      py      :     1.005084
      dz2     :     0.012421  d :     0.074227
      dxz     :     0.014569
      dyz     :     0.016092
      dx2y2   :     0.018515
      dxy     :     0.012629

  3 C s       :     2.833653  s :     2.833653
      pz      :     1.042659  p :     3.121245
      px      :     1.031572
      py      :     1.047014
      dz2     :     0.017218  d :     0.074240
      dxz     :     0.015269
      dyz     :     0.011406
      dx2y2   :     0.021396
      dxy     :     0.008950

  4 C s       :     2.857300  s :     2.857300
      pz      :     1.042393  p :     3.017495
      px      :     1.036989
      py      :     0.938113
      dz2     :     0.026980  d :     0.109562
      dxz     :     0.031899
      dyz     :     0.015852
      dx2y2   :     0.017849
      dxy     :     0.016982

  5 C s       :     2.850318  s :     2.850318
      pz      :     1.041805  p :     3.079911
      px      :     1.047630
      py      :     0.990476
      dz2     :     0.023161  d :     0.093619
      dxz     :     0.031300
      dyz     :     0.013139
      dx2y2   :     0.012578
      dxy     :     0.013442

  6 C s       :     2.854744  s :     2.854744
      pz      :     1.032726  p :     3.042267
      px      :     1.053257
      py      :     0.956284
      dz2     :     0.020771  d :     0.093967
      dxz     :     0.027209
      dyz     :     0.009350
      dx2y2   :     0.018052
      dxy     :     0.018584

  7 C s       :     2.854353  s :     2.854353
      pz      :     1.056955  p :     3.120814
      px      :     1.041636
      py      :     1.022223
      dz2     :     0.025338  d :     0.108172
      dxz     :     0.035043
      dyz     :     0.015932
      dx2y2   :     0.018177
      dxy     :     0.013682

  8 C s       :     2.854150  s :     2.854150
      pz      :     1.037441  p :     3.046763
      px      :     1.049091
      py      :     0.960231
      dz2     :     0.023670  d :     0.094433
      dxz     :     0.030437
      dyz     :     0.014387
      dx2y2   :     0.012032
      dxy     :     0.013907

  9 C s       :     2.850450  s :     2.850450
      pz      :     1.035697  p :     3.088681
      px      :     1.052639
      py      :     1.000346
      dz2     :     0.021414  d :     0.093150
      dxz     :     0.026949
      dyz     :     0.009749
      dx2y2   :     0.018290
      dxy     :     0.016748

 10 C s       :     2.871851  s :     2.871851
      pz      :     0.970844  p :     2.812351
      px      :     1.017028
      py      :     0.824479
      dz2     :     0.049548  d :     0.216854
      dxz     :     0.080153
      dyz     :     0.040055
      dx2y2   :     0.021142
      dxy     :     0.025955

 11 O s       :     3.545042  s :     3.545042
      pz      :     1.449980  p :     4.622268
      px      :     1.761685
      py      :     1.410603
      dz2     :     0.011495  d :     0.029392
      dxz     :     0.005586
      dyz     :     0.009602
      dx2y2   :     0.001386
      dxy     :     0.001325

 12 C s       :     2.847902  s :     2.847902
      pz      :     1.052010  p :     3.147270
      px      :     1.036857
      py      :     1.058402
      dz2     :     0.008490  d :     0.079281
      dxz     :     0.023965
      dyz     :     0.018339
      dx2y2   :     0.013211
      dxy     :     0.015276

 13 C s       :     2.869512  s :     2.869512
      pz      :     0.890721  p :     2.814631
      px      :     0.997411
      py      :     0.926499
      dz2     :     0.032690  d :     0.219348
      dxz     :     0.029732
      dyz     :     0.046795
      dx2y2   :     0.055041
      dxy     :     0.055090

 14 O s       :     3.543764  s :     3.543764
      pz      :     1.529792  p :     4.622456
      px      :     1.652233
      py      :     1.440432
      dz2     :     0.003731  d :     0.029888
      dxz     :     0.003536
      dyz     :     0.007458
      dx2y2   :     0.006450
      dxy     :     0.008713

 15 C s       :     2.851725  s :     2.851725
      pz      :     1.042720  p :     3.141658
      px      :     1.035137
      py      :     1.063802
      dz2     :     0.012988  d :     0.107073
      dxz     :     0.016597
      dyz     :     0.018528
      dx2y2   :     0.030349
      dxy     :     0.028612

 16 C s       :     2.853945  s :     2.853945
      pz      :     0.959189  p :     3.026963
      px      :     1.039302
      py      :     1.028472
      dz2     :     0.013255  d :     0.094932
      dxz     :     0.019284
      dyz     :     0.011435
      dx2y2   :     0.023674
      dxy     :     0.027284

 17 C s       :     2.852107  s :     2.852107
      pz      :     1.034074  p :     3.126823
      px      :     1.056175
      py      :     1.036574
      dz2     :     0.008457  d :     0.090031
      dxz     :     0.015954
      dyz     :     0.012777
      dx2y2   :     0.024029
      dxy     :     0.028815

 18 C s       :     2.837342  s :     2.837342
      pz      :     0.966875  p :     2.917960
      px      :     0.890117
      py      :     1.060968
      dz2     :     0.021770  d :     0.177630
      dxz     :     0.035276
      dyz     :     0.021831
      dx2y2   :     0.048972
      dxy     :     0.049781

 19 O s       :     3.430336  s :     3.430336
      pz      :     1.628968  p :     4.634064
      px      :     1.357770
      py      :     1.647326
      dz2     :     0.004381  d :     0.031768
      dxz     :     0.005964
      dyz     :     0.004702
      dx2y2   :     0.007770
      dxy     :     0.008950

 20 C s       :     2.841941  s :     2.841941
      pz      :     0.986158  p :     2.948603
      px      :     0.977168
      py      :     0.985277
      dz2     :     0.026181  d :     0.120479
      dxz     :     0.021369
      dyz     :     0.025886
      dx2y2   :     0.020355
      dxy     :     0.026687

 21 C s       :     2.855269  s :     2.855269
      pz      :     1.020568  p :     3.103573
      px      :     1.051507
      py      :     1.031498
      dz2     :     0.010853  d :     0.088927
      dxz     :     0.017385
      dyz     :     0.011619
      dx2y2   :     0.020932
      dxy     :     0.028137

 22 C s       :     2.852464  s :     2.852464
      pz      :     0.972426  p :     3.045804
      px      :     1.044183
      py      :     1.029195
      dz2     :     0.008096  d :     0.095211
      dxz     :     0.017403
      dyz     :     0.014759
      dx2y2   :     0.026401
      dxy     :     0.028552

 23 H s       :     0.911531  s :     0.911531
      pz      :     0.013243  p :     0.067256
      px      :     0.014172
      py      :     0.039841

 24 H s       :     0.909332  s :     0.909332
      pz      :     0.017627  p :     0.066655
      px      :     0.035969
      py      :     0.013059

 25 H s       :     0.911386  s :     0.911386
      pz      :     0.024052  p :     0.067241
      px      :     0.024492
      py      :     0.018697

 26 H s       :     0.912403  s :     0.912403
      pz      :     0.035525  p :     0.067577
      px      :     0.013085
      py      :     0.018967

 27 H s       :     0.911344  s :     0.911344
      pz      :     0.020709  p :     0.066626
      px      :     0.025625
      py      :     0.020292

 28 H s       :     0.910900  s :     0.910900
      pz      :     0.018722  p :     0.066768
      px      :     0.034706
      py      :     0.013340

[...]
    80a ->  85a  :     0.806498 (c= -0.89805236)
    81a ->  85a  :     0.186350 (c= -0.43168267)

Storing amplitudes in GBW file ... 
... GBW file created

-----------------------------
TD-DFT/TDA-EXCITATION SPECTRA
-----------------------------

Center of mass = (  1.0863,  0.0054,  0.4257)
Generating CIS transition densities           ... done

----------------------------------------------------------------------------------------------------
                     ABSORPTION SPECTRUM VIA TRANSITION ELECTRIC DIPOLE MOMENTS    
----------------------------------------------------------------------------------------------------
     Transition      Energy     Energy  Wavelength fosc(D2)      D2        DX        DY        DZ   
                      (eV)      (cm-1)    (nm)                 (au**2)    (au)      (au)      (au)  
----------------------------------------------------------------------------------------------------
  0-1A  ->  1-1A    3.846727   31026.0   322.3   0.000787579   0.00836  -0.02973   0.01097  -0.08575
  0-1A  ->  2-1A    4.003363   32289.3   309.7   0.005369812   0.05475  -0.22982   0.02120   0.03852
  0-1A  ->  3-1A    4.262351   34378.2   290.9   0.043671423   0.41821  -0.61946   0.09228   0.16111
  0-1A  ->  4-1A    4.646368   37475.5   266.8   0.125095077   1.09893   0.83497  -0.20464  -0.59989
  0-1A  ->  5-1A    4.704453   37944.0   263.5   0.603985216   5.24034   2.25516  -0.22370  -0.32333
  0-1A  ->  6-1A    4.755555   38356.1   260.7   0.028701282   0.24634  -0.47711  -0.00021  -0.13678
  0-1A  ->  7-1A    4.774671   38510.3   259.7   0.016138751   0.13796   0.33631  -0.15382  -0.03458
  0-1A  ->  8-1A    4.807818   38777.7   257.9   0.074598606   0.63332  -0.67649   0.18474   0.37623
  0-1A  ->  9-1A    4.871594   39292.1   254.5   0.020791377   0.17420  -0.38770   0.12653   0.08880
  0-1A  -> 10-1A    5.030528   40573.9   246.5   0.001695567   0.01376   0.10041  -0.04179  -0.04392
  0-1A  -> 11-1A    5.111802   41229.5   242.5   0.433174419   3.45884  -1.54564   0.03525  -1.03373
  0-1A  -> 12-1A    5.216699   42075.5   237.7   0.002293325   0.01794  -0.12292  -0.05206  -0.01109
  0-1A  -> 13-1A    5.712142   46071.5   217.1   0.004177237   0.02985   0.09901  -0.13817   0.03092
  0-1A  -> 14-1A    5.750294   46379.3   215.6   0.000730022   0.00518  -0.06420  -0.01013  -0.03095
  0-1A  -> 15-1A    5.840272   47105.0   212.3   0.010140086   0.07087   0.22433  -0.13428  -0.05012
  0-1A  -> 16-1A    5.851846   47198.3   211.9   0.205829585   1.43568   0.21606  -1.07631   0.48017
  0-1A  -> 17-1A    6.067768   48939.9   204.3   0.001531706   0.01030  -0.01084  -0.10057   0.00845
  0-1A  -> 18-1A    6.083760   49068.8   203.8   0.000213310   0.00143   0.03118   0.01920   0.00951

----------------------------------------------------------------------------------------------------
                     ABSORPTION SPECTRUM VIA TRANSITION VELOCITY DIPOLE MOMENTS    
----------------------------------------------------------------------------------------------------
     Transition      Energy     Energy  Wavelength fosc(P2)      P2        PX        PY        PZ   
                      (eV)      (cm-1)    (nm)                 (au**2)    (au)      (au)      (au)  
----------------------------------------------------------------------------------------------------
  0-1A  ->  1-1A    3.846727   31026.0   322.3   0.000715704   0.00015  -0.00265  -0.00829   0.00872
  0-1A  ->  2-1A    4.003363   32289.3   309.7   0.003059701   0.00068   0.02336  -0.00434  -0.01051
  0-1A  ->  3-1A    4.262351   34378.2   290.9   0.018363858   0.00431   0.06373   0.00164  -0.01581
  0-1A  ->  4-1A    4.646368   37475.5   266.8   0.036330942   0.00931  -0.09065  -0.01050   0.03126
  0-1A  ->  5-1A    4.704453   37944.0   263.5   0.276690660   0.07175  -0.25627  -0.01355   0.07677
  0-1A  ->  6-1A    4.755555   38356.1   260.7   0.014387142   0.00377   0.06013  -0.00382  -0.01189
  0-1A  ->  7-1A    4.774671   38510.3   259.7   0.002097564   0.00055  -0.02009   0.00244  -0.01194
  0-1A  ->  8-1A    4.807818   38777.7   257.9   0.019067750   0.00505   0.04442   0.02044  -0.05160
  0-1A  ->  9-1A    4.871594   39292.1   254.5   0.009853998   0.00265   0.04616   0.00516  -0.02211
  0-1A  -> 10-1A    5.030528   40573.9   246.5   0.000409281   0.00011  -0.00993   0.00361   0.00135
  0-1A  -> 11-1A    5.111802   41229.5   242.5   0.179994122   0.05072   0.21730  -0.03572   0.04715
  0-1A  -> 12-1A    5.216699   42075.5   237.7   0.001434946   0.00041   0.02007  -0.00313   0.00028
  0-1A  -> 13-1A    5.712142   46071.5   217.1   0.000385364   0.00012  -0.01049  -0.00256   0.00217
  0-1A  -> 14-1A    5.750294   46379.3   215.6   0.000389118   0.00012   0.01107   0.00053   0.00079
  0-1A  -> 15-1A    5.840272   47105.0   212.3   0.003010194   0.00097  -0.02903   0.00740  -0.00846
  0-1A  -> 16-1A    5.851846   47198.3   211.9   0.002114214   0.00068  -0.01816   0.01876   0.00019
  0-1A  -> 17-1A    6.067768   48939.9   204.3   0.000438855   0.00015   0.00174   0.01130  -0.00401
  0-1A  -> 18-1A    6.083760   49068.8   203.8   0.000119165   0.00004  -0.00563  -0.00208  -0.00198

------------------------------------------------------------------------------------------
                     CD SPECTRUM VIA TRANSITION ELECTRIC DIPOLE MOMENTS    
------------------------------------------------------------------------------------------
     Transition      Energy     Energy  Wavelength    R        MX        MY        MZ   
                      (eV)      (cm-1)    (nm)   (1e40*cgs)   (au)      (au)      (au)  
------------------------------------------------------------------------------------------
  0-1A  ->  1-1A    3.846727   31026.0   322.3  -12.91831  -0.04004  -0.17205  -0.32767
  0-1A  ->  2-1A    4.003363   32289.3   309.7   21.31745   0.21351  -0.17428   0.19590
  0-1A  ->  3-1A    4.262351   34378.2   290.9   -6.91497  -0.00335   0.07840   0.03325
  0-1A  ->  4-1A    4.646368   37475.5   266.8  -15.78157  -0.11349  -0.13287  -0.16844
  0-1A  ->  5-1A    4.704453   37944.0   263.5  -38.29867  -0.04146  -0.50451  -0.19135
  0-1A  ->  6-1A    4.755555   38356.1   260.7    3.50247   0.00758   0.17742   0.02759
  0-1A  ->  7-1A    4.774671   38510.3   259.7  -12.06693   0.10616   0.06629  -0.00252
  0-1A  ->  8-1A    4.807818   38777.7   257.9   -6.53211   0.05755   0.00485   0.13792
  0-1A  ->  9-1A    4.871594   39292.1   254.5   -2.75546  -0.07085  -0.06935  -0.14469
  0-1A  -> 10-1A    5.030528   40573.9   246.5   -3.23606   0.03830  -0.01920  -0.05045
  0-1A  -> 11-1A    5.111802   41229.5   242.5   53.20522   0.04850   0.34064   0.04827
  0-1A  -> 12-1A    5.216699   42075.5   237.7    0.87192   0.00633   0.02513  -0.02140
  0-1A  -> 13-1A    5.712142   46071.5   217.1    2.57276  -0.03096   0.02263   0.02377
  0-1A  -> 14-1A    5.750294   46379.3   215.6    0.34337   0.01133   0.01978  -0.00645
  0-1A  -> 15-1A    5.840272   47105.0   212.3    7.12253  -0.03175   0.05132   0.02182
  0-1A  -> 16-1A    5.851846   47198.3   211.9   -1.67230   0.03146   0.04670   0.09791
  0-1A  -> 17-1A    6.067768   48939.9   204.3    0.79977  -0.02920   0.01820  -0.02165
  0-1A  -> 18-1A    6.083760   49068.8   203.8    0.20729  -0.01377   0.00167  -0.00444

------------------------------------------------------------------------------------------
                     CD SPECTRUM VIA TRANSITION VELOCITY DIPOLE MOMENTS    
------------------------------------------------------------------------------------------
     Transition      Energy     Energy  Wavelength    R        MX        MY        MZ   
                      (eV)      (cm-1)    (nm)   (1e40*cgs)   (au)      (au)      (au)  
------------------------------------------------------------------------------------------
  0-1A  ->  1-1A    3.846727   31026.0   322.3   -4.41846  -0.04004  -0.17205  -0.32767
  0-1A  ->  2-1A    4.003363   32289.3   309.7   11.81194   0.21351  -0.17428   0.19590
  0-1A  ->  3-1A    4.262351   34378.2   290.9   -1.83929  -0.00335   0.07840   0.03325
  0-1A  ->  4-1A    4.646368   37475.5   266.8   17.71720  -0.11349  -0.13287  -0.16844
  0-1A  ->  5-1A    4.704453   37944.0   263.5    7.55836  -0.04146  -0.50451  -0.19135
  0-1A  ->  6-1A    4.755555   38356.1   260.7   -1.48149   0.00758   0.17742   0.02759
  0-1A  ->  7-1A    4.774671   38510.3   259.7   -5.21517   0.10616   0.06629  -0.00252
  0-1A  ->  8-1A    4.807818   38777.7   257.9  -11.90405   0.05755   0.00485   0.13792
  0-1A  ->  9-1A    4.871594   39292.1   254.5   -1.13007  -0.07085  -0.06935  -0.14469
  0-1A  -> 10-1A    5.030528   40573.9   246.5   -1.32075   0.03830  -0.01920  -0.05045
  0-1A  -> 11-1A    5.111802   41229.5   242.5    1.61979   0.04850   0.34064   0.04827
  0-1A  -> 12-1A    5.216699   42075.5   237.7    0.10431   0.00633   0.02513  -0.02140
  0-1A  -> 13-1A    5.712142   46071.5   217.1    0.71525  -0.03096   0.02263   0.02377
  0-1A  -> 14-1A    5.750294   46379.3   215.6    0.29177   0.01133   0.01978  -0.00645
  0-1A  -> 15-1A    5.840272   47105.0   212.3    2.45367  -0.03175   0.05132   0.02182
  0-1A  -> 16-1A    5.851846   47198.3   211.9    0.71033   0.03146   0.04670   0.09791
  0-1A  -> 17-1A    6.067768   48939.9   204.3    0.51086  -0.02920   0.01820  -0.02165
  0-1A  -> 18-1A    6.083760   49068.8   203.8    0.17478  -0.01377   0.00167  -0.00444

Total run time:      203.654 sec

           *** ORCA-CIS/TD-DFT FINISHED WITHOUT ERROR ***
-----------------------
CIS/TD-DFT TOTAL ENERGY
-----------------------

    E(SCF)  =   -999.727587300 Eh
    DE(CIS) =      0.141364642 Eh (Root  1)
    ----------------------------- ---------
    E(tot)  =   -999.586222658 Eh


Maximum memory used throughout the entire CIS-calculation: 728.7 MB
=> NOW LEAVING ORCA_CIS

-------------------------   --------------------
FINAL SINGLE POINT ENERGY      -999.586222658094
-------------------------   --------------------



           ************************************************************
           *        Program running with 4 parallel MPI-processes     *
           *              working on a common directory               *
           ************************************************************

------------------------------------------------------------------------------
                              ORCA PROPERTY CALCULATIONS
------------------------------------------------------------------------------

GBWName                                 ... td.gbw
Number of atoms                         ...     45
Number of basis functions               ...    432
Max core memory                         ...   2500 MB

Electric properties:
Dipole moment                           ... YES
Quadrupole moment                       ...  NO
Static polarizability (Dipole/Dipole)   ...  NO
Static polarizability (Dipole/Quad.)    ...  NO
Static polarizability (Quad./Quad.)     ...  NO
Static polarizability (Velocity)        ...  NO
Static hyperpolarizability              ...  NO

Atomic electric properties:
Dipole moment                           ...  NO
Quadrupole moment                       ...  NO
Static polarizability                   ...  NO

Choice of electric origin               ... Center of mass
Position of electric origin             ...     1.086295     0.005369     0.425652

General magnetic properties:
Magnetizability                         ...  NO

EPR properties:
g-Tensor (aka g-matrix)                 ...  NO
Zero-Field splitting spin-orbit         ...  NO
Zero-field splitting spin-spin          ...  NO
Hyperfine couplings                     ...  NO (   0 nuclei)
Quadrupole couplings                    ...  NO (   0 nuclei)
Contact density                         ...  NO (   0 nuclei)

NMR properties:
Chemical shifts                         ...  NO (   0 nuclei)
Spin-rotation constants                 ...  NO (   0 nuclei)
Spin-spin couplings                     ...  NO (   0 nuclei,    0 pairs)

Choice of magnetic origin               ... GIAO
Position of magnetic origin             ...     0.000000     0.000000     0.000000

Properties with geometric perturbations:
SCF Hessian                             ...  NO
IR spectrum                             ...  NO
VCD spectrum                            ...  NO
X-ray spectroscopy properties:
SCF XES/XAS/RIXS spectra                ...  NO

SCF SOC stabilization energy            ...  NO
Diagonal Born-Oppenheimer correction    ...  NO

-------------
DIPOLE MOMENT
-------------

Method             : SCF
Type of density    : Electron Density
Multiplicity       :   1
Irrep              :   0
Energy             :  -999.7275873004527966 Eh
Basis              : AO
                                X                 Y                 Z
Electronic contribution:     24.823498015      -1.209601921       9.619579027
Nuclear contribution   :    -23.944062021       0.070052545     -11.381722668
                        -----------------------------------------
Total Dipole Moment    :      0.879435994      -1.139549375      -1.762143641
                        -----------------------------------------
Magnitude (a.u.)       :      2.275330890
Magnitude (Debye)      :      5.783431505



--------------------
Rotational spectrum 
--------------------
 
Rotational constants in cm-1:             0.023124             0.002838             0.002678 
Rotational constants in MHz :           693.237202            85.091746            80.286003 

Dipole components along the rotational axes: 
x,y,z [a.u.] :    -1.122425    -1.711165     0.994590 
x,y,z [Debye]:    -2.852977    -4.349435     2.528047 

 

Dipole moment calculation done in   0.0 sec 

Maximum memory used throughout the entire PROP-calculation: 23.2 MB

--------------------------------
SUGGESTED CITATIONS FOR THIS RUN
--------------------------------

Below you find a list of papers that are relevant to this ORCA run
We neither can nor want to force you to cite these papers, but we appreciate if you do
You receive ORCA, which is the product of decades of hard work by many enthusiastic individuals, for free
The only thing we kindly ask in return is that you cite our papers,
We deeply appreciate it, if you show your appreciation for ORCA by not just citing the generic ORCA reference.

Please note that relegating all ORCA citations to the supporting information does *not* help us.
SI sections are not indexed - citations you put there will not count into any citation statistics
But we need these citations in order to attract the funding resources that allow us to do what we are doing

Therefore, if you are a happy ORCA user, please consider citing a few of the papers listed below in the main body of your paper

In addition to the list printed below, the program has created the file td.bibtex that contains the list in bibtex format
You can import this file easily into all common literature databanks and citation aid programs

It goes without saying that in many instances, there are alternative algorithms to achieve similar
results as the ones you have gotten from ORCA. It is, of course, also the case that in some instances
ORCA just re-implements algorithms worked out by others. We are fully aware of that and we are also
fully appreciative of our colleagues work. Hence this citation list should not be read as indicating
that the listed papers, which are focused on our own work, are the only ones worth citing. It simply
meant to make it easier for users to cite ORCA specific papers. It is not a substitute for doing your
own literature research and citing the relevant literature in a scientifically appropriate manner.

List of essential papers. We consider these as the minimum necessary citations

  1. Neese, F.
     Software update: the ORCA program system, version 6.0
     WIRES Comput. Molec. Sci. 2025 15(1), e70019
     doi.org/10.1002/wcms.70019

List of papers to cite with high priority. The work reported in these papers was absolutely
necessary for this run to complete.
Our perspective: the developers of density functionals and basis sets usually get cited in chemistry papers
Good! But without the algorithms to do something with them, the functionals or basis sets would not do anything.
Hence, in our opinion, the algorithm design and method developments papers are equally worthy of getting cited

  1. Neese, F.; Olbrich, G.
     Efficient use of the resolution of the identity approximation in time-dependent density functional calculations with hybrid density functionals
     Chem. Phys. Lett. 2002 362 , 170-178
     doi.org/10.1016/s0009-2614(02)01053-9
  2. Neese, F.
     An improvement of the resolution of the identity approximation for the formation of the Coulomb matrix
     J. Comp. Chem. 2003 24(14), 1740-1747
     doi.org/10.1002/jcc.10318
  3. Neese, F.; Wennmohs, F.; Hansen, A.; Becker, U.
     Efficient, approximate and parallel Hartree-Fock and hybrid DFT calculations. A 'chain-of-spheres' algorithm for the Hartree-Fock exchange
     Chem. Phys. 2009 356(1-3), 98-109
     doi.org/10.1016/j.chemphys.2008.10.036
  4. Garcia-Rates, M.; Neese, F.
     Effect of the Solute Cavity on the Solvation Energy and its Derivatives within the Framework of the Gaussian Charge Scheme
     J. Comput. Chem. 2020 41 , 922-939
     doi.org/10.1002/jcc.26139
  5. Helmich-Paris, B.; de Souza, B.; Neese, F.; Izsák, R.
     An improved chain of spheres for exchange algorithm
     J. Chem. Phys. 2021 155(10), 104109
     doi.org/10.1063/5.0058766
  6. Neese, F.
     The SHARK Integral Generation and Digestion System
     J. Comp. Chem. 2022 44(3), 381
     doi.org/10.1002/jcc.26942

List of suggested additional citations. These are papers that are important in the 'surrounding' of 
of this run, or papers that preceded the highly important papers. If you like your results we are grateful for a citation.

  1. Izsak, R.; Neese, F.
     An overlap fitted chain of spheres exchange method
     J. Chem. Phys. 2011 135 , 144105
     doi.org/10.1063/1.3646921
  2. Izsak, R.; Hansen, A.; Neese, F.
     The resolution of identity and chain of spheres approximations for the LPNO-CCSD singles Fock term
     Molec. Phys. 2012 110 , 2413-2417
     doi.org/10.1080/00268976.2012.687466
  3. Neese, F.
     The ORCA program system
     WIRES Comput. Molec. Sci. 2012 2(1), 73-78
     doi.org/10.1002/wcms.81
  4. Izsak, R.; Neese, F.; Klopper, W.
     Robust fitting techniques in the chain of spheres approximation to the Fock exchange: The role of the complementary space
     J. Chem. Phys. 2013 139 , 
     doi.org/10.1063/1.4819264
  5. Neese, F.
     Software update: the ORCA program system, version 4.0
     WIRES Comput. Molec. Sci. 2018 8(1), 1-6
     doi.org/10.1002/wcms.1327
  6. Neese, F.; Wennmohs, F.; Becker, U.; Riplinger, C.
     The ORCA quantum chemistry program package
     J. Chem. Phys. 2020 152(22), 224108
     doi.org/10.1063/5.0004608
  7. Neese, F.
     Software update: The ORCA program system—Version 5.0
     WIRES Comput. Molec. Sci. 2022 12(1), e1606
     doi.org/10.1002/wcms.1606

List of optional additional citations

  1. Neese, F.
     Approximate second-order SCF convergence for spin unrestricted wavefunctions
     Chem. Phys. Lett. 2000 325(1-3), 93-98
     doi.org/10.1016/s0009-2614(00)00662-x

Timings for individual modules:

Sum of individual times          ...      337.817 sec (=   5.630 min)
Startup calculation              ...        4.649 sec (=   0.077 min)   1.4 %
SCF iterations                   ...      128.638 sec (=   2.144 min)  38.1 %
Property integrals               ...        0.373 sec (=   0.006 min)   0.1 %
Property calculations            ...        0.261 sec (=   0.004 min)   0.1 %
CIS module                       ...      203.896 sec (=   3.398 min)  60.4 %
                             ****ORCA TERMINATED NORMALLY****
TOTAL RUN TIME: 0 days 0 hours 5 minutes 38 seconds 414 msec
