
                                 *****************
                                 * O   R   C   A *
                                 *****************

                                            #,                                       
                                            ###                                      
                                            ####                                     
                                            #####                                    
                                            ######                                   
                                           ########,                                 
                                     ,,################,,,,,                         
                               ,,#################################,,                 
                          ,,##########################################,,             
                       ,#########################################, ''#####,          
                    ,#############################################,,   '####,        
                  ,##################################################,,,,####,       
                ,###########''''           ''''###############################       
              ,#####''   ,,,,##########,,,,          '''####'''          '####       
            ,##' ,,,,###########################,,,                        '##       
           ' ,,###''''                  '''############,,,                           
         ,,##''                                '''############,,,,        ,,,,,,###''
      ,#''                                            '''#######################'''  
     '                                                          ''''####''''         
             ,#######,   #######,   ,#######,      ##                                
            ,#'     '#,  ##    ##  ,#'     '#,    #''#        ,####,    ,#,          
            ##       ##  ##   ,#'  ##            #'  '#       #'       ,# #          
            ##       ##  #######   ##           ,######,      #####,      #          
            '#,     ,#'  ##    ##  '#,     ,#' ,#      #,     #,   #      #          
             '#######'   ##     ##  '#######'  #'      '#     '####' #    #          



                #########################################################
                #                        -***-                          #
                #          Department of theory and spectroscopy        #
                #                                                       #
                #                      Frank Neese                      #
                #                                                       #
                #     Directorship, Architecture, Infrastructure        #
                #                    SHARK, DRIVERS                     #
                #        Core code/Algorithms in most modules           #
                #                                                       #
                #        Max Planck Institute fuer Kohlenforschung      #
                #                Kaiser Wilhelm Platz 1                 #
                #                 D-45470 Muelheim/Ruhr                 #
                #                      Germany                          #
                #                                                       #
                #                  All rights reserved                  #
                #                        -***-                          #
                #########################################################


                         Program Version 6.1.1  -  RELEASE   -


 With contributions from (in alphabetic order):
[Max-Planck-Institut fuer Kohlenforschung]                               
  Daniel Aravena         : Magnetic Suceptibility                        
  Michael Atanasov       : Ab Initio Ligand Field Theory (pilot matlab implementation)
  Alexander A. Auer      : GIAO ZORA, VPT2 properties, NMR spectrum      
  Ute Becker             : All parallelization in ORCA, NUMFREQ, NUMCALC 
  Giovanni Bistoni       : ED, misc. LED, open-shell LED, HFLD           
  Dmytro Bykov           : pre 5.0 version of the SCF Hessian            
  Marcos Casanova-Páez   : Triplet and SCS-CIS(D). UHF-(DLPNO)-IP/EA/STEOM-CCSD. UHF-CVS-IP/STEOM-CCSD   
  Vijay G. Chilkuri      : MRCI spin determinant printing, contributions to CSF-ICE 
  Pauline Colinet        : FMM embedding                                 
  Dipayan Datta          : RHF DLPNO-CCSD density                        
  Achintya Kumar Dutta   : EOM-CC, STEOM-CC                              
  Nicolas Foglia         : Exact transition moments, OPA infrastructure, MCD improvements    
  Dmitry Ganyushin       : Spin-Orbit,Spin-Spin,Magnetic field MRCI      
  Miquel Garcia-Rates    : C-PCM and meta-GGA Hessian, CCSD/C-PCM, Gaussian charge scheme 
  Tiago L. C. Gouveia    : GS-ROHF, GS-ROCIS                             
  Yang Guo               : DLPNO-NEVPT2, F12-NEVPT2, CIM, IAO-localization        
  Andreas Hansen         : Spin unrestricted coupled pair/coupled cluster methods 
  Ingolf Harden          : AUTO-CI MPn and infrastructure                
  Benjamin Helmich-Paris : MC-RPA, TRAH-(SCF,CASSCF), AVAS, COSX integrals, SCF dyn. polar., MC-PDFT, srDFT 
  Lee Huntington         : MR-EOM, pCC                                   
  Robert Izsak           : Overlap fitted RIJCOSX, COSX-SCS-MP3, EOM     
  Riya Kayal             : Wick's Theorem for AUTO-CI, AUTO-CI UHF-CCSDT 
  Emily Kempfer          : AUTO-CI RHF CISDT and CCSDT, approximate NEVPT4
  Christian Kollmar      : KDIIS, OOCD, Brueckner-CCSD(T), CCSD density, CASPT2, CASPT2-K, improved NEVPT2 
  Axel Koslowski         : Symmetry handling                             
  Simone Kossmann        : meta-GGA functionals, TD-DFT gradient, OOMP2, (MP2 Hessian; deprecated post 5.0) 
  Lucas Lang             : DCDCAS, Hyperfine gauge corrections, ICE-SOC+SSC
  Marvin Lechner         : AUTO-CI (C++ implementation), FIC-MRCC        
  Spencer Leger          : CASSCF response                               
  Dagmar Lenk            : GEPOL surface, SMD, ORCA-2-JSON               
  Dimitrios Liakos       : Extrapolation schemes; Compound Job, Property file
  Dimitrios Manganas     : Further ROCIS development; embedding schemes. LFT, Crystal Embedding 
  Dimitrios Pantazis     : SARC Basis sets                               
  Anastasios Papadopoulos: AUTO-CI, single reference methods and gradients 
  Taras Petrenko         : pre 6.0 DFT Hessian and TD-DFT gradient,  ECA, NRVS 
  Petra Pikulova         : Analytic Raman intensities                    
  Peter Pinski           : DLPNO-MP2, DLPNO-MP2 Gradient                 
  Shashank Vittal Rao    : ES-AILFT, MagRelax                            
  Christoph Reimann      : Effective Core Potentials                     
  Marius Retegan         : Local ZFS, SOC                                
  Christoph Riplinger    : Optimizer, TS searches, QM/MM, DLPNO-CCSD(T), (RO)-DLPNO pert. Triples 
  Michael Roemelt        : Original ROCIS implementation, recursive CI coupling coefficients
  Masaaki Saitow         : Open-shell DLPNO-CCSD energy and density      
  Barbara Sandhoefer     : DKH picture change effects                    
  Yorick L. A. Schmerwitz: GMF and freeze-and-release deltaSCF, NEB S-IDPP initial path                    
  Kantharuban Sivalingam : CASSCF convergence/infrastructure, NEVPT2, NEVPT3, NEVPT4(SD), FIC-MRCI and CEPA variants
  Bernardo de Souza      : ESD, SOC TD-DFT                               
  Georgi L. Stoychev     : AutoAux, RI-MP2 NMR, DLPNO-MP2 response, X2C  
  Van Anh Tran           : RI-MP2 g-tensors                              
  Willem Van den Heuvel  : Paramagnetic NMR                              
  Zikuan Wang            : NOTCH, Electric field optimization            
  Frank Wennmohs         : Technical directorship and infrastructure     
  Hang Xu                : AUTO-CI-Response properties                   
                                                                         
[FACCTs GmbH]                                                            
  Markus Bursch, Nicolas Foglia, Miquel Garcia-Rates, Ingolf Harden, Hagen Neugebauer, Anastasios Papadopoulos, 
  Christoph Riplinger, Bernardo de Souza, Georgi L. Stoychev                                                    
                                                                 
  APM, various basis sets, CI-OPT, improved COSX, DLPNO-Multilevel,           
  DOCKER, DRACO, updates on ESD, Fragmentator, GOAT, IRC, LR-CPCM, L-BFGS, MBIS, meta-GGA TD-DFT gradient, ML-optimized integration grids, 
  MM, NACMEs, nearIR, NEB, NEB-TS, NL-DFT gradient (VV10), 2- and 3-layer-ONIOM, interface openCOSMO-RS, QMMM,   
  Crystal-QMMM, RESP, rigid body optimization, SF, symmetry and pop. for TD-DFT, various functionals, SOLVATOR                                   
                                                                         
[Other institutions]                                                     
  V. Asgeirsson          : NEB                                           
  Christoph Bannwarth    : sTDA-DFT, sTD-DFT, PBEh-3c, B97-3c, D3        
  Giovanni Bistoni       : ETS/NOCV, ADLD/ADEX, COVALED                  
  Martin Brehm           : Molecular dynamics                            
  Ronald Cardenas        : ETS/NOCV                                      
  Martina Colucci        : COVALED                                       
  Sebastian Ehlert       : rSCAN, r2SCAN, r2SCAN-3c, D4, dhf basis sets  
  Marvin Friede          : D4 for Fr, Ra, Ac-Lr                          
  Lars Goerigk           : TD-DFT with DH, B97 family of functionals     
  Stefan Grimme          : VdW corrections, initial TS optimization, DFT functionals, gCP, sTDA/sTD-DF 
  Waldemar Hujo          : DFT-NL                                        
  H. Jonsson             : NEB                                           
  Holger Kruse           : gCP                                           
  Marcel Mueller         : wB97X-3c, vDZP basis set                      
  Hagen Neugebauer       : wr2SCAN, Native XTB                           
  Gianluca Regni         : ADLD/ADEX                                     
  Tobias Risthaus        : pre 6.0 range-separated hybrid DFT and stability analysis
  Lukas Wittmann         : regularized MP2, r2SCAN double-hybrids, wr2SCAN        
                                                                         
We gratefully acknowledge several colleagues who have allowed us to      
interface, adapt or use parts of their codes:                            
  Ed Valeev, F. Pavosevic, A. Kumar             : LibInt (2-el integral package), F12 methods 
  Garnet Chan, S. Sharma, J. Yang, R. Olivares  : DMRG                   
  Ulf Ekstrom                                   : XCFun DFT Library      
  Mihaly Kallay                                 : mrcc  (arbitrary order and MRCC methods)
  Frank Weinhold                                : gennbo (NPA and NBO analysis)           
  Simon Mueller                                 : openCOSMO-RS                            
  Christopher J. Cramer and Donald G. Truhlar   : smd solvation model                     
  S Lehtola, MJT Oliveira, MAL Marques          : LibXC Library                           
  Liviu Ungur et al                             : ANISO software                          


 Your calculation uses the libint2 library for the computation of 2-el integrals
 For citations please refer to: http://libint.valeyev.net

 Your ORCA version has been built with support for libXC version: 7.0.0
 For citations please refer to: https://libxc.gitlab.io

 This ORCA versions uses:
   CBLAS   interface :  Fast vector & matrix operations
   LAPACKE interface :  Fast linear algebra routines
   Shared memory     :  Shared parallel matrices


  ***********************************
  * Starting time: Wed Jul 22 10:58:52 2026
  * Host name:     DESKTOP-19Q153E
  * Process ID:    22484
  * Working dir.:  C:\Users\ysm04\Documents\etc\uv_vis\calculations\02_tddft_orca\diketo\diketo_c000\camb3lyp_def2svp\ethanol\dftopt22
  ***********************************

NOTE: MaxCore=2500 MB was set to SCF,MP2,MDCI,CIPSI,MRCI,RASCI and CIS
      => If you want to overwrite this, your respective input block should be placed after the MaxCore statement
XCFun DFT library Copyright 2009-2010 Ulf Ekstrom and contributors.
See http://admol.org/xcfun for more information.
This is free software; see the source code for copying conditions.
There is ABSOLUTELY NO WARRANTY; not even for MERCHANTABILITY or FITNESS FOR A PARTICULAR PURPOSE.
For details see the documentation.
Scientific users of this library should cite U. Ekstrom, L. Visscher, R. Bast, A. J. Thorvaldsen and K. Ruud;
J.Chem.Theor.Comp. 2010, DOI: 10.1021/ct100117s
XCFun Version 0.99 

================================================================================

----- Orbital basis set information -----
Your calculation utilizes the basis: def2-SVP
   F. Weigend and R. Ahlrichs, Phys. Chem. Chem. Phys. 7, 3297 (2005).

----- AuxJ basis set information -----
Your calculation utilizes the auxiliary basis: def2/J
   H-Rn: F. Weigend, Phys. Chem. Chem. Phys. 8, 1057 (2006).
   Fr-Lr: K. Eichkorn, F. Weigend, O. Treutler, R. Ahlrichs; Theor. Chem. Acc. 97, 119 (1997).

================================================================================
                                        WARNINGS
                       Please study these warnings very carefully!
================================================================================


WARNING: CIS/ROCIS methods need fully converged wavefunctions
  ===> : Setting SCFConvForced true
         You can overwrite this default with %scf ConvForced false 


================================================================================
                                       INPUT FILE
================================================================================
NAME = td.inp
|  1> # diketo / diketo_c000 / camb3lyp_def2svp / solvent=ethanol
|  2> ! CAM-B3LYP def2-SVP RIJCOSX def2/J TightSCF CPCM(Ethanol)
|  3> %pal nprocs 4 end
|  4> %maxcore 2500
|  5> %scf
|  6>   MaxIter 300
|  7> end
|  8> %tddft
|  9>   nroots 22
| 10>   tda    true
| 11>   maxdim 5
| 12> end
| 13> * xyz 0 1
| 14> C     -5.4709956342     1.7597022103     0.4418989051
| 15> C     -4.8664773089     0.4913451308    -0.1878447721
| 16> C     -5.7705041695    -0.7110893324     0.1757865928
| 17> C     -4.8454730881     0.6722758927    -1.7246188114
| 18> C     -3.4354089581     0.2174585406     0.3100588498
| 19> C     -2.7281071581    -0.9065887830    -0.1630458037
| 20> C     -1.4354509394    -1.1972741243     0.2698852106
| 21> C     -0.7880196994    -0.3590885201     1.1981369335
| 22> C     -1.4817396235     0.7696408148     1.6694928640
| 23> C     -2.7770801470     1.0493825999     1.2366962844
| 24> C      0.5928257391    -0.6102065791     1.7060899258
| 25> O      1.1343245856     0.1701150436     2.4752346914
| 26> C      1.3378235909    -1.8745842932     1.2579328986
| 27> C      1.9572976155    -1.7790283732    -0.1453601734
| 28> O      1.3904063024    -2.3104624028    -1.0908331591
| 29> C      3.2375291275    -1.0470979578    -0.3245145515
| 30> C      3.8158819200    -1.0094048510    -1.6147045411
| 31> C      5.0101041286    -0.3480372455    -1.8445697989
| 32> C      5.6734506973     0.3091296857    -0.7837841045
| 33> O      6.8283245304     0.9245894010    -1.0990022437
| 34> C      7.5599401126     1.6145588329    -0.0923216434
| 35> C      5.1091432373     0.2866773004     0.5050739746
| 36> C      3.9073569454    -0.3892278917     0.7235115339
| 37> H     -5.5403651380     1.6808533615     1.5385361778
| 38> H     -4.8840930037     2.6596143528     0.1984592367
| 39> H     -6.4905916119     1.9124446070     0.0540685529
| 40> H     -5.4198305432    -1.6449109767    -0.2902760832
| 41> H     -6.8004263266    -0.5280173467    -0.1725183434
| 42> H     -5.8021645117    -0.8652560145     1.2667966147
| 43> H     -4.2110259918     1.5262024665    -2.0132539663
| 44> H     -4.4648740354    -0.2239851248    -2.2382960564
| 45> H     -5.8655535197     0.8646712744    -2.0960035150
| 46> H     -3.1948424217    -1.5777290437    -0.8875030938
| 47> H     -0.9230840956    -2.0694764533    -0.1388465157
| 48> H     -0.9868756500     1.4271985667     2.3874082024
| 49> H     -3.2758285752     1.9338653878     1.6336574080
| 50> H      2.1184149818    -2.0609215114     2.0065553395
| 51> H      0.6533607624    -2.7323197940     1.2401140420
| 52> H      3.3009752769    -1.5160974129    -2.4334821026
| 53> H      5.4616045161    -0.3188656008    -2.8390355606
| 54> H      8.4480255871     2.0284595094    -0.5870827703
| 55> H      6.9671467592     2.4373651349     0.3412406609
| 56> H      7.8764222639     0.9309161920     0.7132505205
| 57> H      5.5968919371     0.7895023807     1.3403217329
| 58> H      3.4815615337    -0.3762990740     1.7279518780
| 59> *
| 60> 
| 61>                          ****END OF INPUT****
================================================================================

                       ****************************
                       * Single Point Calculation *
                       ****************************

---------------------------------
CARTESIAN COORDINATES (ANGSTROEM)
---------------------------------
  C     -5.470996    1.759702    0.441899
  C     -4.866477    0.491345   -0.187845
  C     -5.770504   -0.711089    0.175787
  C     -4.845473    0.672276   -1.724619
  C     -3.435409    0.217459    0.310059
  C     -2.728107   -0.906589   -0.163046
  C     -1.435451   -1.197274    0.269885
  C     -0.788020   -0.359089    1.198137
  C     -1.481740    0.769641    1.669493
  C     -2.777080    1.049383    1.236696
  C      0.592826   -0.610207    1.706090
  O      1.134325    0.170115    2.475235
  C      1.337824   -1.874584    1.257933
  C      1.957298   -1.779028   -0.145360
  O      1.390406   -2.310462   -1.090833
  C      3.237529   -1.047098   -0.324515
  C      3.815882   -1.009405   -1.614705
  C      5.010104   -0.348037   -1.844570
  C      5.673451    0.309130   -0.783784
  O      6.828325    0.924589   -1.099002
  C      7.559940    1.614559   -0.092322
  C      5.109143    0.286677    0.505074
  C      3.907357   -0.389228    0.723512
  H     -5.540365    1.680853    1.538536
  H     -4.884093    2.659614    0.198459
  H     -6.490592    1.912445    0.054069
  H     -5.419831   -1.644911   -0.290276
  H     -6.800426   -0.528017   -0.172518
  H     -5.802165   -0.865256    1.266797
  H     -4.211026    1.526202   -2.013254
  H     -4.464874   -0.223985   -2.238296
  H     -5.865554    0.864671   -2.096004
  H     -3.194842   -1.577729   -0.887503
  H     -0.923084   -2.069476   -0.138847
  H     -0.986876    1.427199    2.387408
  H     -3.275829    1.933865    1.633657
  H      2.118415   -2.060922    2.006555
  H      0.653361   -2.732320    1.240114
  H      3.300975   -1.516097   -2.433482
  H      5.461605   -0.318866   -2.839036
  H      8.448026    2.028460   -0.587083
  H      6.967147    2.437365    0.341241
  H      7.876422    0.930916    0.713251
  H      5.596892    0.789502    1.340322
  H      3.481562   -0.376299    1.727952

----------------------------
CARTESIAN COORDINATES (A.U.)
----------------------------
  NO LB      ZA    FRAG     MASS         X           Y           Z
   0 C     6.0000    0    12.011  -10.338683    3.325355    0.835068
   1 C     6.0000    0    12.011   -9.196309    0.928508   -0.354975
   2 C     6.0000    0    12.011  -10.904673   -1.343764    0.332189
   3 C     6.0000    0    12.011   -9.156617    1.270417   -3.259057
   4 C     6.0000    0    12.011   -6.491982    0.410937    0.585926
   5 C     6.0000    0    12.011   -5.155375   -1.713205   -0.308112
   6 C     6.0000    0    12.011   -2.712609   -2.262520    0.510009
   7 C     6.0000    0    12.011   -1.489141   -0.678579    2.264151
   8 C     6.0000    0    12.011   -2.800082    1.454410    3.154884
   9 C     6.0000    0    12.011   -5.247921    1.983046    2.337017
  10 C     6.0000    0    12.011    1.120278   -1.153123    3.224043
  11 O     8.0000    0    15.999    2.143563    0.321471    4.677516
  12 C     6.0000    0    12.011    2.528120   -3.542451    2.377149
  13 C     6.0000    0    12.011    3.698756   -3.361876   -0.274691
  14 O     8.0000    0    15.999    2.627487   -4.366141   -2.061376
  15 C     6.0000    0    12.011    6.118043   -1.978728   -0.613244
  16 C     6.0000    0    12.011    7.210972   -1.907499   -3.051349
  17 C     6.0000    0    12.011    9.467725   -0.657695   -3.485732
  18 C     6.0000    0    12.011   10.721268    0.584170   -1.481137
  19 O     8.0000    0    15.999   12.903663    1.747221   -2.076813
  20 C     6.0000    0    12.011   14.286216    3.051074   -0.174463
  21 C     6.0000    0    12.011    9.654881    0.541742    0.954451
  22 C     6.0000    0    12.011    7.383835   -0.735534    1.367239
  23 H     1.0000    0     1.008  -10.469773    3.176353    2.907412
  24 H     1.0000    0     1.008   -9.229598    5.025943    0.375034
  25 H     1.0000    0     1.008  -12.265441    3.613997    0.102175
  26 H     1.0000    0     1.008  -10.241995   -3.108431   -0.548542
  27 H     1.0000    0     1.008  -12.850943   -0.997808   -0.326012
  28 H     1.0000    0     1.008  -10.964502   -1.635097    2.393899
  29 H     1.0000    0     1.008   -7.957686    2.884105   -3.804499
  30 H     1.0000    0     1.008   -8.437389   -0.423271   -4.229767
  31 H     1.0000    0     1.008  -11.084290    1.633992   -3.960873
  32 H     1.0000    0     1.008   -6.037377   -2.981476   -1.677138
  33 H     1.0000    0     1.008   -1.744376   -3.910744   -0.262382
  34 H     1.0000    0     1.008   -1.864925    2.697014    4.511548
  35 H     1.0000    0     1.008   -6.190419    3.654476    3.087165
  36 H     1.0000    0     1.008    4.003224   -3.894577    3.791840
  37 H     1.0000    0     1.008    1.234673   -5.163336    2.343476
  38 H     1.0000    0     1.008    6.237939   -2.865009   -4.598615
  39 H     1.0000    0     1.008   10.320937   -0.602569   -5.365000
  40 H     1.0000    0     1.008   15.964455    3.833233   -1.109426
  41 H     1.0000    0     1.008   13.165999    4.605953    0.644851
  42 H     1.0000    0     1.008   14.884281    1.759177    1.347848
  43 H     1.0000    0     1.008   10.576593    1.491943    2.532841
  44 H     1.0000    0     1.008    6.579198   -0.711102    3.265356

--------------------------------
INTERNAL COORDINATES (ANGSTROEM)
--------------------------------
 C      0   0   0     0.000000000000     0.00000000     0.00000000
 C      1   0   0     1.539723736816     0.00000000     0.00000000
 C      2   1   0     1.547688913353   108.33476575     0.00000000
 C      2   1   3     1.547530796385   108.37129901   118.59940846
 C      2   1   3     1.539765730770   112.28227729   239.33431579
 C      5   2   1     1.409817802107   119.97268463   179.95177331
 C      6   5   2     1.393874933605   121.82382971   180.53412886
 C      7   6   5     1.408322966753   120.45988924   359.56297329
 C      8   7   6     1.406219633548   118.15538841     0.00000000
 C      9   8   7     1.394085871625   121.02315754     0.32898634
 C      8   7   6     1.492585222682   123.33125175   179.91257713
 O     11   8   7     1.222172862595   121.10748753   177.34641181
 C     11   8   7     1.534443718136   119.23591935   357.01583826
 C     13  11   8     1.536915888045   114.27614114    79.19638954
 O     14  13  11     1.223808422660   119.45187761   258.63607174
 C     14  13  11     1.485533960735   119.21622354    78.91077396
 C     16  14  13     1.414391364565   118.39413502   177.84007316
 C     17  16  14     1.384345271188   121.12752276   180.25060782
 C     18  17  16     1.413210294016   120.16207934   359.80708003
 O     19  18  17     1.346063411143   116.07582349   179.94207193
 C     20  19  18     1.422928321489   119.81269183   179.80158331
 C     19  18  17     1.407161030969   119.46277259   359.91095120
 C     22  19  18     1.396013283396   119.75377208     0.37400162
 H      1   2   3     1.101654472550   111.89449973    59.76033966
 H      1   2   3     1.101616736464   111.92386656   181.37542748
 H      1   2   3     1.101507412403   109.48998342   300.57479129
 H      3   2   1     1.101003757262   111.92865156   177.03387229
 H      3   2   1     1.102529514442   110.02418532    57.28225347
 H      3   2   1     1.102303320790   110.97621471   297.80822367
 H      4   2   1     1.102281254531   111.00307734    61.84608440
 H      4   2   1     1.100910424348   111.89210795   182.61584585
 H      4   2   1     1.102500189524   110.02072626   302.35115121
 H      6   5   2     1.092295482459   119.87317115     0.40437587
 H      7   6   5     1.091017098593   119.07015032   181.04966139
 H      9   8   7     1.092096599419   118.69187039   180.17127068
 H     10   9   8     1.090246729127   118.34740248   179.74505562
 H     13  11   8     1.097488058000   106.61882802   201.30456884
 H     13  11   8     1.097504926905   110.23847682   319.21850034
 H     17  16  14     1.091907916726   118.60834640     0.17555177
 H     18  17  16     1.092550106842   121.35866484   179.82933041
 H     21  20  19     1.097632977236   106.25755671   180.15459783
 H     21  20  19     1.102900921278   111.31587760   299.07650830
 H     21  20  19     1.102939129689   111.32809533    61.22307793
 H     22  19  18     1.090124154984   120.99685152   180.31328323
 H     23  22  19     1.091040462956   118.31268435   181.09360019

---------------------------
INTERNAL COORDINATES (A.U.)
---------------------------
 C      0   0   0     0.000000000000     0.00000000     0.00000000
 C      1   0   0     2.909656184480     0.00000000     0.00000000
 C      2   1   0     2.924708186744   108.33476575     0.00000000
 C      2   1   3     2.924409388976   108.37129901   118.59940846
 C      2   1   3     2.909735541553   112.28227729   239.33431579
 C      5   2   1     2.664169544710   119.97268463   179.95177331
 C      6   5   2     2.634041889452   121.82382971   180.53412886
 C      7   6   5     2.661344715274   120.45988924   359.56297329
 C      8   7   6     2.657369991548   118.15538841     0.00000000
 C      9   8   7     2.634440504541   121.02315754     0.32898634
 C      8   7   6     2.820577302407   123.33125175   179.91257713
 O     11   8   7     2.309571998615   121.10748753   177.34641181
 C     11   8   7     2.899678395194   119.23591935   357.01583826
 C     13  11   8     2.904350119277   114.27614114    79.19638954
 O     14  13  11     2.312662759214   119.45187761   258.63607174
 C     14  13  11     2.807252348429   119.21622354    78.91077396
 C     16  14  13     2.672812325212   118.39413502   177.84007316
 C     17  16  14     2.616033437335   121.12752276   180.25060782
 C     18  17  16     2.670580425328   120.16207934   359.80708003
 O     19  18  17     2.543691205951   116.07582349   179.94207193
 C     20  19  18     2.688944835814   119.81269183   179.80158331
 C     19  18  17     2.659148974858   119.46277259   359.91095120
 C     22  19  18     2.638082784936   119.75377208     0.37400162
 H      1   2   3     2.081825247329   111.89449973    59.76033966
 H      1   2   3     2.081753936461   111.92386656   181.37542748
 H      1   2   3     2.081547343926   109.48998342   300.57479129
 H      3   2   1     2.080595573644   111.92865156   177.03387229
 H      3   2   1     2.083478836860   110.02418532    57.28225347
 H      3   2   1     2.083051392805   110.97621471   297.80822367
 H      4   2   1     2.083009693618   111.00307734    61.84608440
 H      4   2   1     2.080419199996   111.89210795   182.61584585
 H      4   2   1     2.083423420797   110.02072626   302.35115121
 H      6   5   2     2.064139319166   119.87317115     0.40437587
 H      7   6   5     2.061723523767   119.07015032   181.04966139
 H      9   8   7     2.063763484688   118.69187039   180.17127068
 H     10   9   8     2.060267736454   118.34740248   179.74505562
 H     13  11   8     2.073951864869   106.61882802   201.30456884
 H     13  11   8     2.073983742480   110.23847682   319.21850034
 H     17  16  14     2.063406926073   118.60834640     0.17555177
 H     18  17  16     2.064620489518   121.35866484   179.82933041
 H     21  20  19     2.074225722537   106.25755671   180.15459783
 H     21  20  19     2.084180694065   111.31587760   299.07650830
 H     21  20  19     2.084252897497   111.32809533    61.22307793
 H     22  19  18     2.060036104893   120.99685152   180.31328323
 H     23  22  19     2.061767676014   118.31268435   181.09360019

---------------------
BASIS SET INFORMATION
---------------------
There are 3 groups of distinct atoms

 Group   1 Type C   : 7s4p1d contracted to 3s2p1d pattern {511/31/1}
 Group   2 Type O   : 7s4p1d contracted to 3s2p1d pattern {511/31/1}
 Group   3 Type H   : 4s1p contracted to 2s1p pattern {31/1}

Atom   0C    basis set group =>   1
Atom   1C    basis set group =>   1
Atom   2C    basis set group =>   1
Atom   3C    basis set group =>   1
Atom   4C    basis set group =>   1
Atom   5C    basis set group =>   1
Atom   6C    basis set group =>   1
Atom   7C    basis set group =>   1
Atom   8C    basis set group =>   1
Atom   9C    basis set group =>   1
Atom  10C    basis set group =>   1
Atom  11O    basis set group =>   2
Atom  12C    basis set group =>   1
Atom  13C    basis set group =>   1
Atom  14O    basis set group =>   2
Atom  15C    basis set group =>   1
Atom  16C    basis set group =>   1
Atom  17C    basis set group =>   1
Atom  18C    basis set group =>   1
Atom  19O    basis set group =>   2
Atom  20C    basis set group =>   1
Atom  21C    basis set group =>   1
Atom  22C    basis set group =>   1
Atom  23H    basis set group =>   3
Atom  24H    basis set group =>   3
Atom  25H    basis set group =>   3
Atom  26H    basis set group =>   3
Atom  27H    basis set group =>   3
Atom  28H    basis set group =>   3
Atom  29H    basis set group =>   3
Atom  30H    basis set group =>   3
Atom  31H    basis set group =>   3
Atom  32H    basis set group =>   3
Atom  33H    basis set group =>   3
Atom  34H    basis set group =>   3
Atom  35H    basis set group =>   3
Atom  36H    basis set group =>   3
Atom  37H    basis set group =>   3
Atom  38H    basis set group =>   3
Atom  39H    basis set group =>   3
Atom  40H    basis set group =>   3
Atom  41H    basis set group =>   3
Atom  42H    basis set group =>   3
Atom  43H    basis set group =>   3
Atom  44H    basis set group =>   3
---------------------------------
AUXILIARY/J BASIS SET INFORMATION
---------------------------------
There are 3 groups of distinct atoms

 Group   1 Type C   : 12s5p4d2f1g contracted to 6s4p3d1f1g pattern {711111/2111/211/2/1}
 Group   2 Type O   : 12s5p4d2f1g contracted to 6s4p3d1f1g pattern {711111/2111/211/2/1}
 Group   3 Type H   : 5s2p1d contracted to 3s1p1d pattern {311/2/1}

Atom   0C    basis set group =>   1
Atom   1C    basis set group =>   1
Atom   2C    basis set group =>   1
Atom   3C    basis set group =>   1
Atom   4C    basis set group =>   1
Atom   5C    basis set group =>   1
Atom   6C    basis set group =>   1
Atom   7C    basis set group =>   1
Atom   8C    basis set group =>   1
Atom   9C    basis set group =>   1
Atom  10C    basis set group =>   1
Atom  11O    basis set group =>   2
Atom  12C    basis set group =>   1
Atom  13C    basis set group =>   1
Atom  14O    basis set group =>   2
Atom  15C    basis set group =>   1
Atom  16C    basis set group =>   1
Atom  17C    basis set group =>   1
Atom  18C    basis set group =>   1
Atom  19O    basis set group =>   2
Atom  20C    basis set group =>   1
Atom  21C    basis set group =>   1
Atom  22C    basis set group =>   1
Atom  23H    basis set group =>   3
Atom  24H    basis set group =>   3
Atom  25H    basis set group =>   3
Atom  26H    basis set group =>   3
Atom  27H    basis set group =>   3
Atom  28H    basis set group =>   3
Atom  29H    basis set group =>   3
Atom  30H    basis set group =>   3
Atom  31H    basis set group =>   3
Atom  32H    basis set group =>   3
Atom  33H    basis set group =>   3
Atom  34H    basis set group =>   3
Atom  35H    basis set group =>   3
Atom  36H    basis set group =>   3
Atom  37H    basis set group =>   3
Atom  38H    basis set group =>   3
Atom  39H    basis set group =>   3
Atom  40H    basis set group =>   3
Atom  41H    basis set group =>   3
Atom  42H    basis set group =>   3
Atom  43H    basis set group =>   3
Atom  44H    basis set group =>   3


           ************************************************************
           *        Program running with 4 parallel MPI-processes     *
           *              working on a common directory               *
           ************************************************************
------------------------------------------------------------------------------
                             ORCA STARTUP CALCULATIONS
                           -- RI-GTO INTEGRALS CHOSEN --
------------------------------------------------------------------------------
------------------------------------------------------------------------------
                   ___                                                        
                  /   \      - P O W E R E D   B Y -                         
                 /     \                                                     
                 |  |  |   _    _      __       _____    __    __             
                 |  |  |  | |  | |    /  \     |  _  \  |  |  /  |          
                  \  \/   | |  | |   /    \    | | | |  |  | /  /          
                 / \  \   | |__| |  /  /\  \   | |_| |  |  |/  /          
                |  |  |   |  __  | /  /__\  \  |    /   |      \           
                |  |  |   | |  | | |   __   |  |    \   |  |\   \          
                \     /   | |  | | |  |  |  |  | |\  \  |  | \   \       
                 \___/    |_|  |_| |__|  |__|  |_| \__\ |__|  \__/        
                                                                              
                      - O R C A' S   B I G   F R I E N D -                    
                                      &                                       
                       - I N T E G R A L  F E E D E R -                       
                                                                              
 v1 FN, 2020, v2 2021, v3 2022-2024                                           
------------------------------------------------------------------------------


----------------------
SHARK INTEGRAL PACKAGE
----------------------

Number of atoms                             ...     45
Number of basis functions                   ...    432
Number of shells                            ...    204
Maximum angular momentum                    ...      2
Integral batch strategy                     ... SHARK/LIBINT Hybrid
RI-J (if used) integral strategy            ... SPLIT-RIJ (Revised 2003 algorithm where possible)
Printlevel                                  ...      1
Contraction scheme used                     ... SEGMENTED contraction
Prescreening option                         ... SCHWARTZ
   Thresh                                   ... 2.500e-11
   Tcut                                     ... 2.500e-12
   Tpresel                                  ... 2.500e-12 
Coulomb Range Separation                    ... NOT USED
Exchange Range Separation                   ... Long Range
   Mu parameter                             ... 3.300e-01
   Scaling (regular/separated)              ... 1.900e-01 4.600e-01
Robust (split-)RI terms used:
  metric    (central integrals)             ... YES
  density   (r.h.s.  integrals)             ... YES
  potential (l.h.s.  integrals)             ... YES
Multipole approximations                    ... NOT USED
Finite Nucleus Model                        ... NOT USED
CABS basis                                  ... NOT available
Auxiliary Coulomb fitting basis             ... AVAILABLE
   # of basis functions in Aux-J            ...   1369
   # of shells in Aux-J                     ...    455
   Maximum angular momentum in Aux-J        ...      4
Auxiliary J/K fitting basis                 ... NOT available
Auxiliary Correlation fitting basis         ... NOT available
Auxiliary 'external' fitting basis          ... NOT available

Checking pre-screening integrals            ... done (  0.0 sec) Dimension = 204
   => SHARK Basis and OBASIS are compatible. Storing Pre-screening
Shell pair information
Shell pair cut-off parameter TPreSel        ...   2.5e-12
Total number of shell pairs                 ...     20910
Shell pairs after pre-screening             ...     12932
Total number of primitive shell pairs       ...     75056
Primitive shell pairs kept                  ...     30118
          la=0 lb=0:   4103 shell pairs
          la=1 lb=0:   4840 shell pairs
          la=1 lb=1:   1468 shell pairs
          la=2 lb=0:   1492 shell pairs
          la=2 lb=1:    886 shell pairs
          la=2 lb=2:    143 shell pairs

Checking whether 4 symmetric matrices of dimension 432 fit in memory
:Max Core in MB      =   2500.00
 MB in use           =     16.03
 MB left             =   2483.97
 MB needed           =      2.85
 Data fit in memory  = YES
Calculating RI/J V-Matrix + Cholesky decomp.... done (  0.3 sec)
Calculating Nuclear repulsion               ... done (  0.0 sec) ENN=   1772.096375593933 Eh

Diagonalization of the overlap matrix:
Smallest eigenvalue                        ... 2.680e-04
Time for diagonalization                   ...    0.035 sec
Threshold for overlap eigenvalues          ... 1.000e-07
Number of eigenvalues below threshold      ... 0
Time for construction of square roots      ...    0.017 sec
Total time needed                          ...    0.055 sec

-------------------
DFT GRID GENERATION
-------------------

General Integration Accuracy     IntAcc      ... 4.388
Radial Grid Type                 RadialGrid  ... OptM3 with GC (2021)
Angular Grid (max. ang.)         AngularGrid ... 4 (Lebedev-302)
Angular grid pruning method      GridPruning ... 4 (adaptive)
Weight generation scheme         WeightScheme... mBecke (2022)
Basis function cutoff            BFCut       ... 1.0000e-11
Integration weight cutoff        WCut        ... 1.0000e-14
Partially contracted basis set               ... off
Rotationally invariant grid construction     ... off
Angular grids for H and He will be reduced by one unit

Total number of grid points                  ...   207634
Total number of batches                      ...     3272
Average number of points per batch           ...       63
Average number of grid points per atom       ...     4614

--------------------
COSX GRID GENERATION
--------------------

GRIDX 1
-------
General Integration Accuracy     IntAcc      ... 3.816
Radial Grid Type                 RadialGrid  ... OptM3 with GC (2021)
Angular Grid (max. ang.)         AngularGrid ... 1 (Lebedev-50)
Angular grid pruning method      GridPruning ... 4 (adaptive)
Weight generation scheme         WeightScheme... mBecke (2022)
Basis function cutoff            BFCut       ... 1.0000e-11
Integration weight cutoff        WCut        ... 1.0000e-14
Partially contracted basis set               ... on
Rotationally invariant grid construction     ... off
Angular grids for H and He will be reduced by one unit

Total number of grid points                  ...    26440
Total number of batches                      ...      231
Average number of points per batch           ...      114
Average number of grid points per atom       ...      588
UseSFitting                                  ... on

GRIDX 2
-------
General Integration Accuracy     IntAcc      ... 4.020
Radial Grid Type                 RadialGrid  ... OptM3 with GC (2021)
Angular Grid (max. ang.)         AngularGrid ... 2 (Lebedev-110)
Angular grid pruning method      GridPruning ... 4 (adaptive)
Weight generation scheme         WeightScheme... mBecke (2022)
Basis function cutoff            BFCut       ... 1.0000e-11
Integration weight cutoff        WCut        ... 1.0000e-14
Partially contracted basis set               ... on
Rotationally invariant grid construction     ... off
Angular grids for H and He will be reduced by one unit

Total number of grid points                  ...    56683
Total number of batches                      ...      469
Average number of points per batch           ...      120
Average number of grid points per atom       ...     1260
UseSFitting                                  ... on

GRIDX 3
-------
General Integration Accuracy     IntAcc      ... 4.338
Radial Grid Type                 RadialGrid  ... OptM3 with GC (2021)
Angular Grid (max. ang.)         AngularGrid ... 3 (Lebedev-194)
Angular grid pruning method      GridPruning ... 4 (adaptive)
Weight generation scheme         WeightScheme... mBecke (2022)
Basis function cutoff            BFCut       ... 1.0000e-11
Integration weight cutoff        WCut        ... 1.0000e-14
Partially contracted basis set               ... on
Rotationally invariant grid construction     ... off
Angular grids for H and He will be reduced by one unit

Total number of grid points                  ...   123758
Total number of batches                      ...      994
Average number of points per batch           ...      124
Average number of grid points per atom       ...     2750
UseSFitting                                  ... on
Grids setup in   4.6 sec
Initializing property integral containers    ... done (  0.1 sec)

SHARK setup successfully completed in   5.3 seconds

Maximum memory used throughout the entire STARTUP-calculation: 58.9 MB


           ************************************************************
           *        Program running with 4 parallel MPI-processes     *
           *              working on a common directory               *
           ************************************************************
-------------------------------------------------------------------------------
                                 ORCA GUESS
                   Start orbitals & Density for SCF / CASSCF
-------------------------------------------------------------------------------

------------
SCF SETTINGS
------------
Hamiltonian:
 Density Functional     Method          .... DFT(GTOs)
 Exchange Functional    Exchange        .... WB88
 Correlation Functional Correlation     .... LYP
 LDA part of GGA corr.  LDAOpt          .... VWN-5
 Gradients option       PostSCFGGA      .... off
 Hybrid DFT is turned on
   Fraction HF Exchange ScalHFX         ....  0.190000
   Scaling of DF-GGA-X  ScalDFX         ....  0.350000
   Scaling of DF-GGA-C  ScalDFC         ....  0.810000
   Scaling of DF-LDA-C  ScalLDAC        ....  1.000000
   Perturbative correction              ....  0.000000
 Long-range corrected/Screened/Range-Separated Hybrid DFT is turned on
   Amount of maximum screened exact exchange              ....  0.460000
   Range separation parameter mu (erf(mu*r12)/r12)        ....  0.330000
 RI-approximation to the Coulomb term is turned on
   Number of AuxJ basis functions       .... 1369
   RIJ-COSX (HFX calculated with COS-X)).... on


General Settings:
 Integral files         IntName         .... td
 Hartree-Fock type      HFTyp           .... RHF
 Total Charge           Charge          ....    0
 Multiplicity           Mult            ....    1
 Number of Electrons    NEL             ....  166
 Basis Dimension        Dim             ....  432
 Nuclear Repulsion      ENuc            ....   1772.0963755939 Eh

Convergence Acceleration:
 AO-DIIS                CNVDIIS         .... on
   Start iteration      DIISMaxIt       ....    12
   Startup error        DIISStart       ....  0.200000
   # of expansion vecs  DIISMaxEq       ....     5
   Bias factor          DIISBfac        ....   1.050
   Max. coefficient     DIISMaxC        ....  10.000
 MO-DIIS                CNVKDIIS        .... off
 Trust-Rad. Augm. Hess. CNVTRAH         .... auto
   Auto Start mean grad. ratio tolernc. ....  1.125000
   Auto Start start iteration           ....    50
   Auto Start num. interpolation iter.  ....    10
   Max. Number of Micro iterations      ....    24
   Max. Number of Macro iterations      .... Maxiter - #DIIS iter
   Number of Davidson start vectors     ....     2
   Converg. threshold    (grad. norm)   ....   1.000e-05
   Grad. Scal. Fac. for Micro threshold ....   0.100
   Minimum threshold for Micro iter.    ....   1.000e-02
   NR start threshold (gradient norm)   ....   1.000e-04
   Initial trust radius                 ....   0.400
   Minimum AH scaling param. (alpha)    ....   1.000
   Maximum AH scaling param. (alpha)    .... 1000.000
   Quad. conv. algorithm                .... NR
   White noise on init. David. guess    .... on
   Maximum white noise                  ....   0.010
   Pseudo random numbers                .... off
   Inactive MOs                         .... canonical
   Orbital update algorithm             .... Taylor
   Preconditioner                       .... Diag
   Full preconditioner red. dimension   ....   250
 SOSCF                 CNVSOSCF           .... on
   Start iteration     SOSCFMaxIt         ....   150
   Startup grad/error  SOSCFStart         ....  0.003300
   Hessian update      SOSCFHessUp        .... L-BFGS
   Autom. constraints  SOSCFAutoConstrain .... off
 Level Shifting         CNVShift        .... on
   Level shift para.    LevelShift      ....    0.2500
   Turn off err/grad.   ShiftErr        ....    0.0010
 Zerner damping         CNVZerner       .... off
 Static damping         CNVDamp         .... on
   Fraction old density DampFac         ....    0.7000
   Max. Damping (<1)    DampMax         ....    0.9800
   Min. Damping (>=0)   DampMin         ....    0.0000
   Turn off err/grad.   DampErr         ....    0.1000

SCF Procedure:
 Maximum # iterations   MaxIter         ....   300
 SCF integral mode      SCFMode         .... Direct
   Integral package                     .... SHARK and LIBINT hybrid scheme
 Reset frequency        DirectResetFreq ....    20
 Integral Threshold     Thresh          ....  2.500e-11 Eh
 Primitive CutOff       TCut            ....  2.500e-12 Eh

Convergence Tolerance:
 Convergence Check Mode ConvCheckMode   .... Total+1el-Energy
 Convergence forced     ConvForced      .... 1
 Energy Change          TolE            ....  1.000e-08 Eh
 1-El. energy change                    ....  1.000e-05 Eh
 Orbital Gradient       TolG            ....  1.000e-05
 Orbital Rotation angle TolX            ....  1.000e-05
 DIIS Error             TolErr          ....  5.000e-07

------------------------------
INITIAL GUESS: MODEL POTENTIAL
------------------------------
Loading Hartree-Fock densities                     ... done
Calculating cut-offs                               ... done
Initializing the effective Hamiltonian             ... done
Setting up the integral package (SHARK)            ... done
Starting the Coulomb interaction                   ... done (   0.6 sec)
Making the grid                                    ... done (   0.8 sec)
Mapping shells                                     ... done
Starting the XC term evaluation                    ... done (   0.6 sec)
  promolecular density results
     # of electrons  =    165.987023599
     EX              =   -133.167314822
     EC              =     -5.530949008
     EX+EC           =   -138.698263830
Transforming the Hamiltonian                       ... done (   0.0 sec)
Diagonalizing the Hamiltonian                      ... done (   0.0 sec)
Back transforming the eigenvectors                 ... done (   0.0 sec)
Now organizing SCF variables                       ... done
                      ------------------
                      INITIAL GUESS DONE (   2.2 sec)
                      ------------------
             **** ENERGY FILE WAS UPDATED (td.en.tmp) ****
Finished Guess after   2.4 sec
Maximum memory used throughout the entire GUESS-calculation: 22.4 MB


           ************************************************************
           *        Program running with 4 parallel MPI-processes     *
           *              working on a common directory               *
           ************************************************************

-------------------------------------------------------------------------------------------
                                      ORCA LEAN-SCF
                              memory conserving SCF solver
-------------------------------------------------------------------------------------------

--------------------
CPCM SOLVATION MODEL
--------------------
CPCM parameters:
  Epsilon                                         ...      25.4510
  Refrac                                          ...       1.3611
  Rsolv                                           ...       1.3000
  Surface type                                    ... GAUSSIAN VDW
  Discretization scheme                           ... Constant charge density
    Threshold for H atoms                         ...       5.0000 (charges/Ang^2)
    Threshold for non-H atoms                     ...       5.0000 (charges/Ang^2)
  Epsilon function type                           ...         CPCM
Solvent:                                          ... ETHANOL
Radii:
  Scheme                                          ... Element-dependent radii
  Radius for C  used is    3.8550 Bohr (=   2.0400 Ang.)
  Radius for O  used is    3.4469 Bohr (=   1.8240 Ang.)
  Radius for H  used is    2.4944 Bohr (=   1.3200 Ang.)
Calculating surface                               ...        done! (  0.0s)
Cavity surface points                             ...         3767
Cavity Volume                                     ...    2656.8738
Cavity Surface-area                               ...    1350.7937
Calculating surface distance matrix               ...        done! (  0.1s)
Performing Cholesky decomposition & store         ...        done! (  1.2s)
Overall time for CPCM initialization              ...                 1.3s

----------------------------------------D-I-I-S--------------------------------------------
Iteration    Energy (Eh)           Delta-E    RMSDP     MaxDP     DIISErr   Damp  Time(sec)
-------------------------------------------------------------------------------------------
               ***  Starting incremental Fock matrix formation  ***
    1    -999.3665894387766002     0.00e+00  3.68e-03  6.88e-02  2.18e-01  0.700  26.0
    2    -999.5575972354379246    -1.91e-01  2.66e-03  4.32e-02  9.82e-02  0.700  12.3
                               ***Turning on AO-DIIS***
    3    -999.6471807919822368    -8.96e-02  1.26e-03  1.79e-02  3.95e-02  0.700  11.3
    4    -999.7008493434839238    -5.37e-02  2.46e-03  3.09e-02  2.49e-02  0.000  12.0
    5    -999.8167785704947619    -1.16e-01  2.67e-04  5.99e-03  5.74e-03  0.000  13.1
                              *** Initializing SOSCF ***
---------------------------------------S-O-S-C-F--------------------------------------
Iteration    Energy (Eh)           Delta-E    RMSDP     MaxDP     MaxGrad    Time(sec)
--------------------------------------------------------------------------------------
    6    -999.8171755570631376    -3.97e-04  1.20e-04  2.84e-03  3.05e-03    10.0
               *** Restarting incremental Fock matrix formation ***
    7    -999.8171954909728356    -1.99e-05  8.71e-05  1.93e-03  7.26e-04    25.9
    8    -999.8172184262709834    -2.29e-05  9.99e-05  2.73e-03  2.40e-04    18.6
    9    -999.8172201361610405    -1.71e-06  3.81e-05  1.04e-03  2.23e-04    16.9
   10    -999.8172238725335319    -3.74e-06  9.32e-06  2.31e-04  3.09e-05    17.2
   11    -999.8172239597754469    -8.72e-08  4.68e-06  1.04e-04  2.59e-05    12.1
   12    -999.8172240336473351    -7.39e-08  9.85e-07  3.02e-05  6.41e-06    10.9
   13    -999.8172240153855910     1.83e-08  4.68e-07  1.46e-05  6.74e-06     7.9
   14    -999.8172240262358628    -1.09e-08  2.72e-07  4.70e-06  7.64e-07     7.3
                  *** Gradient check signals convergence ***

               *****************************************************
               *                     SUCCESS                       *
               *           SCF CONVERGED AFTER  14 CYCLES          *
               *****************************************************

Recomputing exchange energy using gridx3       ... done (   61.312 sec)
Old exchange energy                            :    -38.787461366 Eh
New exchange energy                            :    -38.787527259 Eh
Exchange energy change after final integration :     -0.000065892 Eh
Total energy after final integration           :   -999.817289922 Eh
             **** ENERGY FILE WAS UPDATED (td.en.tmp) ****

----------------
TOTAL SCF ENERGY
----------------

Total Energy       :       -999.81728992232502 Eh          -27206.41161 eV

Components:
Nuclear Repulsion  :       1772.09637559393309 Eh           48221.19390 eV
Electronic Energy  :      -2771.89565743013827 Eh          -75427.11548 eV
One Electron Energy:      -4877.59039917809150 Eh         -132725.98242 eV
Two Electron Energy:       2105.69474174795323 Eh           57298.86694 eV
CPCM Dielectric    :         -0.01794219383732 Eh              -0.48823 eV

Virial components:
Potential Energy   :      -1988.77095113099404 Eh          -54117.20885 eV
Kinetic Energy     :        988.95366120866913 Eh           26910.79724 eV
Virial Ratio       :          2.01098497244085

DFT components:
N(Alpha)           :       82.999936397761 electrons
N(Beta)            :       82.999936397761 electrons
N(Total)           :      165.999872795522 electrons
E(XC)              :     -102.974619313711 Eh       

CPCM Solvation Model Properties:
Surface-charge          :         -0.03159743478147
Corrected charge        :         -0.00000000000000
Outlying charge corr.   :          0.00004769217798 Eh               0.00130 eV
Free-energy (cav+disp)  :  This term is not implemented in the current solvation scheme

---------------
SCF CONVERGENCE
---------------

  Last Energy change         ...    1.0850e-08  Tolerance :   1.0000e-08
  Last MAX-Density change    ...    4.6963e-06  Tolerance :   1.0000e-07
  Last RMS-Density change    ...    2.7225e-07  Tolerance :   5.0000e-09
  Last DIIS Error            ...    3.0533e-03  Tolerance :   5.0000e-07
  Last Orbital Gradient      ...    7.6388e-07  Tolerance :   1.0000e-05
  Last Orbital Rotation      ...    2.7321e-06  Tolerance :   1.0000e-05


----------------
ORBITAL ENERGIES
----------------

  NO   OCC          E(Eh)            E(eV) 
   0   2.0000     -19.247344      -523.7469 
   1   2.0000     -19.209857      -522.7268 
   2   2.0000     -19.206585      -522.6378 
   3   2.0000     -10.366565      -282.0886 
   4   2.0000     -10.364767      -282.0396 
   5   2.0000     -10.340529      -281.3801 
   6   2.0000     -10.313384      -280.6414 
   7   2.0000     -10.281307      -279.7686 
   8   2.0000     -10.279989      -279.7327 
   9   2.0000     -10.277397      -279.6622 
  10   2.0000     -10.276557      -279.6393 
  11   2.0000     -10.274992      -279.5967 
  12   2.0000     -10.274277      -279.5773 
  13   2.0000     -10.273066      -279.5443 
  14   2.0000     -10.272952      -279.5412 
  15   2.0000     -10.271625      -279.5051 
  16   2.0000     -10.269625      -279.4507 
  17   2.0000     -10.268065      -279.4082 
  18   2.0000     -10.266621      -279.3690 
  19   2.0000     -10.266258      -279.3591 
  20   2.0000     -10.248367      -278.8722 
  21   2.0000     -10.248281      -278.8699 
  22   2.0000     -10.246418      -278.8192 
  23   2.0000      -1.149187       -31.2710 
  24   2.0000      -1.122763       -30.5519 
  25   2.0000      -1.117031       -30.3960 
  26   2.0000      -0.945558       -25.7299 
  27   2.0000      -0.941027       -25.6067 
  28   2.0000      -0.895988       -24.3811 
  29   2.0000      -0.862724       -23.4759 
  30   2.0000      -0.840180       -22.8625 
  31   2.0000      -0.831366       -22.6226 
  32   2.0000      -0.824726       -22.4419 
  33   2.0000      -0.814320       -22.1588 
  34   2.0000      -0.777617       -21.1600 
  35   2.0000      -0.754316       -20.5260 
  36   2.0000      -0.752867       -20.4865 
  37   2.0000      -0.713893       -19.4260 
  38   2.0000      -0.698109       -18.9965 
  39   2.0000      -0.685680       -18.6583 
  40   2.0000      -0.674523       -18.3547 
  41   2.0000      -0.640578       -17.4310 
  42   2.0000      -0.623861       -16.9761 
  43   2.0000      -0.620248       -16.8778 
  44   2.0000      -0.608750       -16.5649 
  45   2.0000      -0.583804       -15.8861 
  46   2.0000      -0.567489       -15.4421 
  47   2.0000      -0.553397       -15.0587 
  48   2.0000      -0.548159       -14.9162 
  49   2.0000      -0.544580       -14.8188 
  50   2.0000      -0.532319       -14.4851 
  51   2.0000      -0.522379       -14.2147 
  52   2.0000      -0.520929       -14.1752 
  53   2.0000      -0.514563       -14.0020 
  54   2.0000      -0.509022       -13.8512 
  55   2.0000      -0.504897       -13.7390 
  56   2.0000      -0.500025       -13.6064 
  57   2.0000      -0.494419       -13.4538 
  58   2.0000      -0.485655       -13.2153 
  59   2.0000      -0.484743       -13.1905 
  60   2.0000      -0.475163       -12.9299 
  61   2.0000      -0.471713       -12.8360 
  62   2.0000      -0.467123       -12.7111 
  63   2.0000      -0.461317       -12.5531 
  64   2.0000      -0.455450       -12.3934 
  65   2.0000      -0.445855       -12.1323 
  66   2.0000      -0.442276       -12.0349 
  67   2.0000      -0.434869       -11.8334 
  68   2.0000      -0.429653       -11.6914 
  69   2.0000      -0.426182       -11.5970 
  70   2.0000      -0.422935       -11.5086 
  71   2.0000      -0.416310       -11.3284 
  72   2.0000      -0.395390       -10.7591 
  73   2.0000      -0.393425       -10.7056 
  74   2.0000      -0.392121       -10.6702 
  75   2.0000      -0.389454       -10.5976 
  76   2.0000      -0.378974       -10.3124 
  77   2.0000      -0.338501        -9.2111 
  78   2.0000      -0.323886        -8.8134 
  79   2.0000      -0.323251        -8.7961 
  80   2.0000      -0.317973        -8.6525 
  81   2.0000      -0.307812        -8.3760 
  82   2.0000      -0.288419        -7.8483 
  83   0.0000      -0.030970        -0.8427 
  84   0.0000      -0.008847        -0.2407 
  85   0.0000       0.028553         0.7770 
  86   0.0000       0.031494         0.8570 
  87   0.0000       0.078966         2.1488 
  88   0.0000       0.094843         2.5808 
  89   0.0000       0.101044         2.7496 
  90   0.0000       0.117245         3.1904 
  91   0.0000       0.129137         3.5140 
  92   0.0000       0.137103         3.7308 
  93   0.0000       0.141629         3.8539 
*Only the first 10 virtual orbitals were printed.

                    ********************************
                    * MULLIKEN POPULATION ANALYSIS *
                    ********************************

-----------------------
MULLIKEN ATOMIC CHARGES
-----------------------
   0 C :    0.064537
   1 C :   -0.247380
   2 C :    0.047800
   3 C :    0.048684
   4 C :    0.091514
   5 C :   -0.060118
   6 C :   -0.013972
   7 C :    0.006634
   8 C :   -0.017860
   9 C :   -0.045600
  10 C :    0.051643
  11 O :   -0.225553
  12 C :    0.102789
  13 C :    0.047610
  14 O :   -0.233178
  15 C :    0.002016
  16 C :   -0.017539
  17 C :   -0.039852
  18 C :    0.231554
  19 O :   -0.315077
  20 C :    0.146110
  21 C :   -0.103172
  22 C :   -0.010458
  23 H :    0.020736
  24 H :    0.020980
  25 H :    0.016877
  26 H :    0.019097
  27 H :    0.018494
  28 H :    0.018072
  29 H :    0.017956
  30 H :    0.019027
  31 H :    0.018337
  32 H :    0.012445
  33 H :    0.001692
  34 H :    0.001799
  35 H :    0.005053
  36 H :    0.052745
  37 H :    0.052107
  38 H :    0.008816
  39 H :    0.007934
  40 H :    0.055867
  41 H :    0.049088
  42 H :    0.048839
  43 H :    0.013722
  44 H :    0.009186
Sum of atomic charges:   -0.0000000

--------------------------------
MULLIKEN REDUCED ORBITAL CHARGES
--------------------------------
  0 C s       :     2.955097  s :     2.955097
      pz      :     0.991152  p :     2.952082
      px      :     0.987135
      py      :     0.973795
      dz2     :     0.009182  d :     0.028284
      dxz     :     0.003022
      dyz     :     0.003352
      dx2y2   :     0.006249
      dxy     :     0.006479

  1 C s       :     3.195726  s :     3.195726
      pz      :     1.019746  p :     3.001255
      px      :     0.955189
      py      :     1.026320
      dz2     :     0.012175  d :     0.050400
      dxz     :     0.008280
      dyz     :     0.008916
      dx2y2   :     0.010730
      dxy     :     0.010300

  2 C s       :     2.986984  s :     2.986984
      pz      :     0.994300  p :     2.936858
      px      :     0.979810
      py      :     0.962748
      dz2     :     0.008257  d :     0.028358
      dxz     :     0.002869
      dyz     :     0.004439
      dx2y2   :     0.007441
      dxy     :     0.005352

  3 C s       :     2.986102  s :     2.986102
      pz      :     0.934593  p :     2.936857
      px      :     1.001260
      py      :     1.001003
      dz2     :     0.007119  d :     0.028358
      dxz     :     0.004916
      dyz     :     0.006019
      dx2y2   :     0.004766
      dxy     :     0.005539

  4 C s       :     3.076617  s :     3.076617
      pz      :     0.923105  p :     2.790776
      px      :     0.938774
      py      :     0.928897
      dz2     :     0.007079  d :     0.041092
      dxz     :     0.007845
      dyz     :     0.006238
      dx2y2   :     0.009556
      dxy     :     0.010375

  5 C s       :     3.242798  s :     3.242798
      pz      :     0.932483  p :     2.783697
      px      :     0.923503
      py      :     0.927711
      dz2     :     0.004057  d :     0.033623
      dxz     :     0.006704
      dyz     :     0.005478
      dx2y2   :     0.008345
      dxy     :     0.009039

  6 C s       :     3.221839  s :     3.221839
      pz      :     0.943849  p :     2.757440
      px      :     0.917863
      py      :     0.895728
      dz2     :     0.005873  d :     0.034694
      dxz     :     0.007398
      dyz     :     0.004970
      dx2y2   :     0.007293
      dxy     :     0.009159

  7 C s       :     3.084735  s :     3.084735
      pz      :     0.987662  p :     2.870698
      px      :     0.932069
      py      :     0.950967
      dz2     :     0.006328  d :     0.037933
      dxz     :     0.006651
      dyz     :     0.006543
      dx2y2   :     0.010002
      dxy     :     0.008408

  8 C s       :     3.262223  s :     3.262223
      pz      :     0.893351  p :     2.720920
      px      :     0.909997
      py      :     0.917572
      dz2     :     0.003931  d :     0.034717
      dxz     :     0.007388
      dyz     :     0.005500
      dx2y2   :     0.008670
      dxy     :     0.009229

  9 C s       :     3.241947  s :     3.241947
      pz      :     0.974356  p :     2.769928
      px      :     0.892511
      py      :     0.903061
      dz2     :     0.005193  d :     0.033725
      dxz     :     0.007168
      dyz     :     0.004924
      dx2y2   :     0.007774
      dxy     :     0.008665

 10 C s       :     3.139550  s :     3.139550
      pz      :     0.839713  p :     2.714698
      px      :     0.945977
      py      :     0.929008
      dz2     :     0.016073  d :     0.094110
      dxz     :     0.017730
      dyz     :     0.015929
      dx2y2   :     0.025402
      dxy     :     0.018975

 11 O s       :     3.717626  s :     3.717626
      pz      :     1.348621  p :     4.490800
      px      :     1.643940
      py      :     1.498239
      dz2     :     0.004092  d :     0.017128
      dxz     :     0.002873
      dyz     :     0.004352
      dx2y2   :     0.002353
      dxy     :     0.003459

 12 C s       :     2.926264  s :     2.926264
      pz      :     0.972968  p :     2.942789
      px      :     0.964824
      py      :     1.004997
      dz2     :     0.006670  d :     0.028159
      dxz     :     0.007282
      dyz     :     0.003040
      dx2y2   :     0.003559
      dxy     :     0.007608

 13 C s       :     3.137819  s :     3.137819
      pz      :     0.975843  p :     2.720254
      px      :     0.918096
      py      :     0.826315
      dz2     :     0.031556  d :     0.094317
      dxz     :     0.021672
      dyz     :     0.015561
      dx2y2   :     0.012558
      dxy     :     0.012969

 14 O s       :     3.717558  s :     3.717558
      pz      :     1.513508  p :     4.498610
      px      :     1.584638
      py      :     1.400463
      dz2     :     0.003876  d :     0.017010
      dxz     :     0.004624
      dyz     :     0.004507
      dx2y2   :     0.002150
      dxy     :     0.001853

 15 C s       :     3.072083  s :     3.072083
      pz      :     0.907509  p :     2.888544
      px      :     0.952543
      py      :     1.028491
      dz2     :     0.010648  d :     0.037357
      dxz     :     0.009749
      dyz     :     0.007306
      dx2y2   :     0.004187
      dxy     :     0.005468

 16 C s       :     3.260265  s :     3.260265
      pz      :     0.919847  p :     2.721909
      px      :     0.901760
      py      :     0.900302
      dz2     :     0.008033  d :     0.035364
      dxz     :     0.009713
      dyz     :     0.006516
      dx2y2   :     0.005578
      dxy     :     0.005524

 17 C s       :     3.246308  s :     3.246308
      pz      :     0.850260  p :     2.761593
      px      :     0.909625
      py      :     1.001708
      dz2     :     0.006584  d :     0.031952
      dxz     :     0.009868
      dyz     :     0.005310
      dx2y2   :     0.005324
      dxy     :     0.004867

 18 C s       :     2.958351  s :     2.958351
      pz      :     0.995027  p :     2.733625
      px      :     0.833872
      py      :     0.904726
      dz2     :     0.014800  d :     0.076470
      dxz     :     0.018306
      dyz     :     0.011478
      dx2y2   :     0.016888
      dxy     :     0.014998

 19 O s       :     3.710599  s :     3.710599
      pz      :     1.606472  p :     4.587908
      px      :     1.376785
      py      :     1.604651
      dz2     :     0.003176  d :     0.016571
      dxz     :     0.004198
      dyz     :     0.003119
      dx2y2   :     0.003107
      dxy     :     0.002972

 20 C s       :     3.021785  s :     3.021785
      pz      :     0.872019  p :     2.780321
      px      :     0.950201
      py      :     0.958101
      dz2     :     0.006957  d :     0.051784
      dxz     :     0.013489
      dyz     :     0.015017
      dx2y2   :     0.005848
      dxy     :     0.010474

 21 C s       :     3.244927  s :     3.244927
      pz      :     0.874144  p :     2.826524
      px      :     0.946732
      py      :     1.005649
      dz2     :     0.007546  d :     0.031721
      dxz     :     0.009545
      dyz     :     0.005542
      dx2y2   :     0.004318
      dxy     :     0.004771

 22 C s       :     3.224732  s :     3.224732
      pz      :     0.897473  p :     2.750302
      px      :     0.918549
      py      :     0.934280
      dz2     :     0.008159  d :     0.035424
      dxz     :     0.009421
      dyz     :     0.004910
      dx2y2   :     0.007233
      dxy     :     0.005702

 23 H s       :     0.956544  s :     0.956544
      pz      :     0.013936  p :     0.022721
      px      :     0.004874
      py      :     0.003911

 24 H s       :     0.956296  s :     0.956296
      pz      :     0.005043  p :     0.022724
      px      :     0.007129
      py      :     0.010551

 25 H s       :     0.960487  s :     0.960487
      pz      :     0.005694  p :     0.022635
      px      :     0.012756
      py      :     0.004185

 26 H s       :     0.958136  s :     0.958136
      pz      :     0.006404  p :     0.022767
      px      :     0.005310
      py      :     0.011052

 27 H s       :     0.958853  s :     0.958853
      pz      :     0.005653  p :     0.022653
      px      :     0.012745
      py      :     0.004255

 28 H s       :     0.959464  s :     0.959464
      pz      :     0.013887  p :     0.022464
      px      :     0.004300
      py      :     0.004276

 29 H s       :     0.959578  s :     0.959578
      pz      :     0.004224  p :     0.022466
      px      :     0.007896
      py      :     0.010345

 30 H s       :     0.958197  s :     0.958197
      pz      :     0.005795  p :     0.022776
      px      :     0.006075
      py      :     0.010906

 31 H s       :     0.959008  s :     0.959008
      pz      :     0.004745  p :     0.022656
      px      :     0.012755
      py      :     0.005156

 32 H s       :     0.964889  s :     0.964889
      pz      :     0.009113  p :     0.022666
      px      :     0.005605
      py      :     0.007948

 33 H s       :     0.974895  s :     0.974895
      pz      :     0.005665  p :     0.023413
      px      :     0.006433
      py      :     0.011314

 34 H s       :     0.975523  s :     0.975523
      pz      :     0.008885  p :     0.022679
      px      :     0.006145
      py      :     0.007649

 35 H s       :     0.972082  s :     0.972082
      pz      :     0.005395  p :     0.022866
      px      :     0.006000
      py      :     0.011471

 36 H s       :     0.924522  s :     0.924522
      pz      :     0.009211  p :     0.022733
      px      :     0.009255
      py      :     0.004267

 37 H s       :     0.925177  s :     0.925177
      pz      :     0.003785  p :     0.022716
      px      :     0.007977
      py      :     0.010954

 38 H s       :     0.968436  s :     0.968436
      pz      :     0.009928  p :     0.022748
      px      :     0.006450
      py      :     0.006370

 39 H s       :     0.969437  s :     0.969437
      pz      :     0.013303  p :     0.022629
      px      :     0.005441
      py      :     0.003885

 40 H s       :     0.922665  s :     0.922665
      pz      :     0.005010  p :     0.021467
      px      :     0.010874
      py      :     0.005583

 41 H s       :     0.928750  s :     0.928750
      pz      :     0.005366  p :     0.022162
      px      :     0.006339
      py      :     0.010457

 42 H s       :     0.929003  s :     0.929003
      pz      :     0.009515  p :     0.022159
      px      :     0.005127
      py      :     0.007517

 43 H s       :     0.963107  s :     0.963107
      pz      :     0.010473  p :     0.023170
      px      :     0.005884
      py      :     0.006813

 44 H s       :     0.967392  s :     0.967392
      pz      :     0.013956  p :     0.023421
      px      :     0.005695
      py      :     0.003771



                     *******************************
                     * LOEWDIN POPULATION ANALYSIS *
                     *******************************

----------------------
LOEWDIN ATOMIC CHARGES
----------------------
   0 C :   -0.048966
   1 C :   -0.045780
   2 C :   -0.043051
   3 C :   -0.042957
   4 C :    0.016174
   5 C :   -0.030783
   6 C :   -0.005347
   7 C :   -0.091194
   8 C :    0.007998
   9 C :   -0.037218
  10 C :    0.108878
  11 O :   -0.187406
  12 C :   -0.074488
  13 C :    0.106034
  14 O :   -0.195808
  15 C :   -0.110369
  16 C :    0.016647
  17 C :   -0.058548
  18 C :    0.071798
  19 O :   -0.103508
  20 C :    0.079894
  21 C :   -0.082009
  22 C :    0.011856
  23 H :    0.025795
  24 H :    0.025826
  25 H :    0.028590
  26 H :    0.024677
  27 H :    0.026960
  28 H :    0.026081
  29 H :    0.026122
  30 H :    0.024678
  31 H :    0.026950
  32 H :    0.036876
  33 H :    0.032398
  34 H :    0.035160
  35 H :    0.037600
  36 H :    0.055352
  37 H :    0.055247
  38 H :    0.037833
  39 H :    0.041866
  40 H :    0.036612
  41 H :    0.027349
  42 H :    0.027280
  43 H :    0.043616
  44 H :    0.035284

-------------------------------
LOEWDIN REDUCED ORBITAL CHARGES
-------------------------------
  0 C s       :     2.839606  s :     2.839606
      pz      :     1.054040  p :     3.138222
      px      :     1.056814
      py      :     1.027368
      dz2     :     0.022672  d :     0.071138
      dxz     :     0.007614
      dyz     :     0.008789
      dx2y2   :     0.015611
      dxy     :     0.016452

  1 C s       :     2.844828  s :     2.844828
      pz      :     1.035917  p :     3.086364
      px      :     1.012773
      py      :     1.037674
      dz2     :     0.029312  d :     0.114588
      dxz     :     0.017545
      dyz     :     0.018579
      dx2y2   :     0.024353
      dxy     :     0.024798

  2 C s       :     2.842776  s :     2.842776
      pz      :     1.060828  p :     3.129442
      px      :     1.041569
      py      :     1.027045
      dz2     :     0.020607  d :     0.070833
      dxz     :     0.006927
      dyz     :     0.010890
      dx2y2   :     0.017780
      dxy     :     0.014629

  3 C s       :     2.842628  s :     2.842628
      pz      :     1.002016  p :     3.129484
      px      :     1.064650
      py      :     1.062817
      dz2     :     0.019888  d :     0.070845
      dxz     :     0.011358
      dyz     :     0.014229
      dx2y2   :     0.011709
      dxy     :     0.013661

  4 C s       :     2.865623  s :     2.865623
      pz      :     0.971509  p :     3.015012
      px      :     1.021632
      py      :     1.021871
      dz2     :     0.015400  d :     0.103192
      dxz     :     0.019419
      dyz     :     0.016868
      dx2y2   :     0.024852
      dxy     :     0.026652

  5 C s       :     2.857551  s :     2.857551
      pz      :     1.009905  p :     3.084913
      px      :     1.045451
      py      :     1.029557
      dz2     :     0.009720  d :     0.088319
      dxz     :     0.017126
      dyz     :     0.013488
      dx2y2   :     0.022423
      dxy     :     0.025562

  6 C s       :     2.861096  s :     2.861096
      pz      :     0.988188  p :     3.054442
      px      :     1.047583
      py      :     1.018671
      dz2     :     0.013477  d :     0.089809
      dxz     :     0.019844
      dyz     :     0.012596
      dx2y2   :     0.019954
      dxy     :     0.023938

  7 C s       :     2.858253  s :     2.858253
      pz      :     1.041591  p :     3.130061
      px      :     1.028949
      py      :     1.059521
      dz2     :     0.014814  d :     0.102880
      dxz     :     0.018466
      dyz     :     0.017954
      dx2y2   :     0.027444
      dxy     :     0.024203

  8 C s       :     2.861091  s :     2.861091
      pz      :     0.981465  p :     3.041225
      px      :     1.044067
      py      :     1.015693
      dz2     :     0.009362  d :     0.089685
      dxz     :     0.018389
      dyz     :     0.013380
      dx2y2   :     0.022897
      dxy     :     0.025657

  9 C s       :     2.858144  s :     2.858144
      pz      :     1.014641  p :     3.090393
      px      :     1.046804
      py      :     1.028948
      dz2     :     0.011924  d :     0.088681
      dxz     :     0.019679
      dyz     :     0.012597
      dx2y2   :     0.021367
      dxy     :     0.023114

 10 C s       :     2.880195  s :     2.880195
      pz      :     0.853899  p :     2.799626
      px      :     0.997691
      py      :     0.948036
      dz2     :     0.029771  d :     0.211301
      dxz     :     0.041833
      dyz     :     0.037967
      dx2y2   :     0.059757
      dxy     :     0.041972

 11 O s       :     3.541864  s :     3.541864
      pz      :     1.396600  p :     4.616009
      px      :     1.666793
      py      :     1.552615
      dz2     :     0.004892  d :     0.029534
      dxz     :     0.005613
      dyz     :     0.008914
      dx2y2   :     0.004137
      dxy     :     0.005978

 12 C s       :     2.851402  s :     2.851402
      pz      :     1.042962  p :     3.147765
      px      :     1.056262
      py      :     1.048542
      dz2     :     0.018614  d :     0.075321
      dxz     :     0.019638
      dyz     :     0.007812
      dx2y2   :     0.008814
      dxy     :     0.020443

 13 C s       :     2.878520  s :     2.878520
      pz      :     1.007085  p :     2.803561
      px      :     0.965408
      py      :     0.831068
      dz2     :     0.074337  d :     0.211885
      dxz     :     0.049044
      dyz     :     0.033359
      dx2y2   :     0.024690
      dxy     :     0.030454

 14 O s       :     3.542336  s :     3.542336
      pz      :     1.592345  p :     4.624114
      px      :     1.610772
      py      :     1.420997
      dz2     :     0.007143  d :     0.029358
      dxz     :     0.008400
      dyz     :     0.007723
      dx2y2   :     0.002648
      dxy     :     0.003444

 15 C s       :     2.855278  s :     2.855278
      pz      :     1.069165  p :     3.152964
      px      :     1.035570
      py      :     1.048229
      dz2     :     0.030653  d :     0.102128
      dxz     :     0.028129
      dyz     :     0.018502
      dx2y2   :     0.009932
      dxy     :     0.014912

 16 C s       :     2.860464  s :     2.860464
      pz      :     1.048933  p :     3.032153
      px      :     1.025221
      py      :     0.957999
      dz2     :     0.021807  d :     0.090736
      dxz     :     0.027185
      dyz     :     0.015680
      dx2y2   :     0.012330
      dxy     :     0.013735

 17 C s       :     2.861370  s :     2.861370
      pz      :     1.035387  p :     3.111907
      px      :     1.049335
      py      :     1.027185
      dz2     :     0.018850  d :     0.085272
      dxz     :     0.027215
      dyz     :     0.013419
      dx2y2   :     0.012225
      dxy     :     0.013562

 18 C s       :     2.841694  s :     2.841694
      pz      :     1.093360  p :     2.910714
      px      :     0.895226
      py      :     0.922128
      dz2     :     0.036424  d :     0.175794
      dxz     :     0.046399
      dyz     :     0.026512
      dx2y2   :     0.034352
      dxy     :     0.032107

 19 O s       :     3.422597  s :     3.422597
      pz      :     1.621138  p :     4.649716
      px      :     1.419388
      py      :     1.609190
      dz2     :     0.005459  d :     0.031196
      dxz     :     0.008067
      dyz     :     0.005239
      dx2y2   :     0.005913
      dxy     :     0.006517

 20 C s       :     2.847446  s :     2.847446
      pz      :     0.946573  p :     2.955398
      px      :     0.997588
      py      :     1.011237
      dz2     :     0.015302  d :     0.117262
      dxz     :     0.030473
      dyz     :     0.035625
      dx2y2   :     0.012475
      dxy     :     0.023387

 21 C s       :     2.857756  s :     2.857756
      pz      :     1.039328  p :     3.139185
      px      :     1.052697
      py      :     1.047160
      dz2     :     0.022137  d :     0.085069
      dxz     :     0.027085
      dyz     :     0.013519
      dx2y2   :     0.009894
      dxy     :     0.012434

 22 C s       :     2.860584  s :     2.860584
      pz      :     1.050881  p :     3.036513
      px      :     1.024854
      py      :     0.960778
      dz2     :     0.022050  d :     0.091048
      dxz     :     0.025418
      dyz     :     0.012207
      dx2y2   :     0.016236
      dxy     :     0.015137

 23 H s       :     0.909628  s :     0.909628
[...]
  0-1A  ->  6-1A    5.172098   41715.8   239.7   0.472001598   3.72493   1.81936  -0.43075   0.47887
  0-1A  ->  7-1A    5.600061   45167.5   221.4   0.082598880   0.60204  -0.64853  -0.41236   0.10681
  0-1A  ->  8-1A    5.860274   47266.3   211.6   0.002070402   0.01442   0.04394   0.10469   0.03912
  0-1A  ->  9-1A    6.112485   49300.5   202.8   0.113971683   0.76106  -0.14554  -0.03947  -0.85926
  0-1A  -> 10-1A    6.125728   49407.3   202.4   0.074297016   0.49506   0.34716  -0.29786  -0.53462
  0-1A  -> 11-1A    6.255665   50455.3   198.2   0.009226836   0.06020   0.13085   0.17471  -0.11207
  0-1A  -> 12-1A    6.309656   50890.8   196.5   0.078457683   0.50754   0.05145  -0.40061  -0.58686
  0-1A  -> 13-1A    6.639840   53553.9   186.7   0.140668243   0.86473  -0.23424   0.14062   0.88887
  0-1A  -> 14-1A    6.669986   53797.1   185.9   0.001376178   0.00842   0.06262   0.01831   0.06454
  0-1A  -> 15-1A    6.791329   54775.8   182.6   0.296718657   1.78333  -0.20165  -0.93745  -0.92943
  0-1A  -> 16-1A    6.924814   55852.4   179.0   0.042331348   0.24951   0.49496  -0.05879   0.03271
  0-1A  -> 17-1A    6.947493   56035.3   178.5   0.018876488   0.11090   0.30614  -0.04479   0.12318
  0-1A  -> 18-1A    6.956967   56111.7   178.2   0.084013972   0.49292   0.67249  -0.08475   0.18302
  0-1A  -> 19-1A    6.981321   56308.2   177.6   1.003417255   5.86659   2.36708   0.17641   0.48207
  0-1A  -> 20-1A    7.059132   56935.7   175.6   0.002558705   0.01479   0.08705   0.01963   0.08266
  0-1A  -> 21-1A    7.072831   57046.2   175.3   0.206101334   1.18940   0.31148   0.97319  -0.38117
  0-1A  -> 22-1A    7.304016   58910.9   169.7   0.001187564   0.00664   0.08055   0.01209   0.00124

----------------------------------------------------------------------------------------------------
                     ABSORPTION SPECTRUM VIA TRANSITION VELOCITY DIPOLE MOMENTS    
----------------------------------------------------------------------------------------------------
     Transition      Energy     Energy  Wavelength fosc(P2)      P2        PX        PY        PZ   
                      (eV)      (cm-1)    (nm)                 (au**2)    (au)      (au)      (au)  
----------------------------------------------------------------------------------------------------
  0-1A  ->  1-1A    4.012794   32365.4   309.0   0.013978295   0.00309  -0.05474  -0.00313   0.00928
  0-1A  ->  2-1A    4.188864   33785.5   296.0   0.002483824   0.00057   0.01482  -0.01634   0.00931
  0-1A  ->  3-1A    4.846251   39087.7   255.8   0.278592967   0.07442  -0.26614  -0.04934   0.03404
  0-1A  ->  4-1A    4.956152   39974.1   250.2   0.003119724   0.00085   0.02481   0.01048  -0.01128
  0-1A  ->  5-1A    5.033819   40600.5   246.3   0.003187742   0.00088   0.02970   0.00116   0.00110
  0-1A  ->  6-1A    5.172098   41715.8   239.7   0.245511729   0.07000  -0.25385   0.07015  -0.02518
  0-1A  ->  7-1A    5.600061   45167.5   221.4   0.029645258   0.00915   0.08692   0.03829  -0.01142
  0-1A  ->  8-1A    5.860274   47266.3   211.6   0.000137570   0.00004   0.00074   0.00147  -0.00646
  0-1A  ->  9-1A    6.112485   49300.5   202.8   0.005420955   0.00183   0.02945  -0.00560   0.03046
  0-1A  -> 10-1A    6.125728   49407.3   202.4   0.016977308   0.00573  -0.07190   0.01857   0.01478
  0-1A  -> 11-1A    6.255665   50455.3   198.2   0.006017729   0.00208  -0.04313   0.00560   0.01356
  0-1A  -> 12-1A    6.309656   50890.8   196.5   0.007269953   0.00253  -0.04208   0.00640   0.02678
  0-1A  -> 13-1A    6.639840   53553.9   186.7   0.015170626   0.00555   0.05065  -0.00716  -0.05418
  0-1A  -> 14-1A    6.669986   53797.1   185.9   0.000815662   0.00030  -0.01531  -0.00656   0.00473
  0-1A  -> 15-1A    6.791329   54775.8   182.6   0.005976772   0.00224   0.02051   0.01580   0.03959
  0-1A  -> 16-1A    6.924814   55852.4   179.0   0.021833593   0.00833  -0.09062   0.01103   0.00044
  0-1A  -> 17-1A    6.947493   56035.3   178.5   0.008662944   0.00332  -0.05564   0.00953  -0.01142
  0-1A  -> 18-1A    6.956967   56111.7   178.2   0.036915787   0.01416  -0.11662   0.01967  -0.01307
  0-1A  -> 19-1A    6.981321   56308.2   177.6   0.386572439   0.14877  -0.38529   0.01383  -0.01122
  0-1A  -> 20-1A    7.059132   56935.7   175.6   0.000626873   0.00024  -0.01384   0.00196  -0.00697
  0-1A  -> 21-1A    7.072831   57046.2   175.3   0.054424161   0.02122  -0.03721  -0.11310   0.08392
  0-1A  -> 22-1A    7.304016   58910.9   169.7   0.000386817   0.00016  -0.01158  -0.00464   0.00038

------------------------------------------------------------------------------------------
                     CD SPECTRUM VIA TRANSITION ELECTRIC DIPOLE MOMENTS    
------------------------------------------------------------------------------------------
     Transition      Energy     Energy  Wavelength    R        MX        MY        MZ   
                      (eV)      (cm-1)    (nm)   (1e40*cgs)   (au)      (au)      (au)  
------------------------------------------------------------------------------------------
  0-1A  ->  1-1A    4.012794   32365.4   309.0   14.51228  -0.30411  -0.34327  -0.44498
  0-1A  ->  2-1A    4.188864   33785.5   296.0    2.40505   0.06981   0.03302   0.11758
  0-1A  ->  3-1A    4.846251   39087.7   255.8  139.13573  -0.20464   0.12489  -0.52395
  0-1A  ->  4-1A    4.956152   39974.1   250.2   14.31226   0.09748   0.02556  -0.03750
  0-1A  ->  5-1A    5.033819   40600.5   246.3   -7.76903  -0.11166   0.23283  -0.02047
  0-1A  ->  6-1A    5.172098   41715.8   239.7   14.90271  -0.12539  -0.49279  -0.03289
  0-1A  ->  7-1A    5.600061   45167.5   221.4  -11.24560   0.08728  -0.12510   0.27030
  0-1A  ->  8-1A    5.860274   47266.3   211.6    0.29927   0.00792  -0.00332  -0.01624
  0-1A  ->  9-1A    6.112485   49300.5   202.8   16.83553   0.06309  -0.10188   0.03555
  0-1A  -> 10-1A    6.125728   49407.3   202.4  -31.21904  -0.03190  -0.26498   0.00305
  0-1A  -> 11-1A    6.255665   50455.3   198.2   12.79522  -0.06975  -0.09207   0.01720
  0-1A  -> 12-1A    6.309656   50890.8   196.5  -16.59679  -0.09076  -0.04549  -0.03689
  0-1A  -> 13-1A    6.639840   53553.9   186.7   -9.83394  -0.00969   0.27821  -0.02310
  0-1A  -> 14-1A    6.669986   53797.1   185.9   -1.71056  -0.00532   0.12905   0.02476
  0-1A  -> 15-1A    6.791329   54775.8   182.6    7.66551  -0.03898   0.11851  -0.09358
  0-1A  -> 16-1A    6.924814   55852.4   179.0   -2.93179   0.01263  -0.05806  -0.10542
  0-1A  -> 17-1A    6.947493   56035.3   178.5    7.26314  -0.03932  -0.14246  -0.07914
  0-1A  -> 18-1A    6.956967   56111.7   178.2   11.96205   0.00350  -0.20376  -0.24585
  0-1A  -> 19-1A    6.981321   56308.2   177.6  272.83583  -0.12818  -0.32654  -0.45157
  0-1A  -> 20-1A    7.059132   56935.7   175.6    5.71607  -0.08199  -0.00458  -0.05925
  0-1A  -> 21-1A    7.072831   57046.2   175.3  -131.37536  -0.07696   0.18715  -0.31613
  0-1A  -> 22-1A    7.304016   58910.9   169.7    0.71739  -0.01686  -0.01417   0.00625

------------------------------------------------------------------------------------------
                     CD SPECTRUM VIA TRANSITION VELOCITY DIPOLE MOMENTS    
------------------------------------------------------------------------------------------
     Transition      Energy     Energy  Wavelength    R        MX        MY        MZ   
                      (eV)      (cm-1)    (nm)   (1e40*cgs)   (au)      (au)      (au)  
------------------------------------------------------------------------------------------
  0-1A  ->  1-1A    4.012794   32365.4   309.0   43.45033  -0.30411  -0.34327  -0.44498
  0-1A  ->  2-1A    4.188864   33785.5   296.0    4.86949   0.06981   0.03302   0.11758
  0-1A  ->  3-1A    4.846251   39087.7   255.8   80.64654  -0.20464   0.12489  -0.52395
  0-1A  ->  4-1A    4.956152   39974.1   250.2    8.04685   0.09748   0.02556  -0.03750
  0-1A  ->  5-1A    5.033819   40600.5   246.3   -7.81781  -0.11166   0.23283  -0.02047
  0-1A  ->  6-1A    5.172098   41715.8   239.7   -4.73777  -0.12539  -0.49279  -0.03289
  0-1A  ->  7-1A    5.600061   45167.5   221.4   -0.66570   0.08728  -0.12510   0.27030
  0-1A  ->  8-1A    5.860274   47266.3   211.6    0.23175   0.00792  -0.00332  -0.01624
  0-1A  ->  9-1A    6.112485   49300.5   202.8    7.37094   0.06309  -0.10188   0.03555
  0-1A  -> 10-1A    6.125728   49407.3   202.4   -5.40551  -0.03190  -0.26498   0.00305
  0-1A  -> 11-1A    6.255665   50455.3   198.2    5.59007  -0.06975  -0.09207   0.01720
  0-1A  -> 12-1A    6.309656   50890.8   196.5    5.16471  -0.09076  -0.04549  -0.03689
  0-1A  -> 13-1A    6.639840   53553.9   186.7   -2.38042  -0.00969   0.27821  -0.02310
  0-1A  -> 14-1A    6.669986   53797.1   185.9   -1.24522  -0.00532   0.12905   0.02476
  0-1A  -> 15-1A    6.791329   54775.8   182.6   -4.97151  -0.03898   0.11851  -0.09358
  0-1A  -> 16-1A    6.924814   55852.4   179.0   -3.39251   0.01263  -0.05806  -0.10542
  0-1A  -> 17-1A    6.947493   56035.3   178.5    3.20208  -0.03932  -0.14246  -0.07914
  0-1A  -> 18-1A    6.956967   56111.7   178.2   -2.21831   0.00350  -0.20376  -0.24585
  0-1A  -> 19-1A    6.981321   56308.2   177.6   91.76632  -0.12818  -0.32654  -0.45157
  0-1A  -> 20-1A    7.059132   56935.7   175.6    2.79649  -0.08199  -0.00458  -0.05925
  0-1A  -> 21-1A    7.072831   57046.2   175.3  -81.31730  -0.07696   0.18715  -0.31613
  0-1A  -> 22-1A    7.304016   58910.9   169.7    0.46257  -0.01686  -0.01417   0.00625

Total run time:      528.802 sec

           *** ORCA-CIS/TD-DFT FINISHED WITHOUT ERROR ***
-----------------------
CIS/TD-DFT TOTAL ENERGY
-----------------------

    E(SCF)  =   -999.817289922 Eh
    DE(CIS) =      0.147467467 Eh (Root  1)
    ----------------------------- ---------
    E(tot)  =   -999.669822455 Eh


Maximum memory used throughout the entire CIS-calculation: 798.5 MB
=> NOW LEAVING ORCA_CIS

-------------------------   --------------------
FINAL SINGLE POINT ENERGY      -999.669822455493
-------------------------   --------------------



           ************************************************************
           *        Program running with 4 parallel MPI-processes     *
           *              working on a common directory               *
           ************************************************************

------------------------------------------------------------------------------
                              ORCA PROPERTY CALCULATIONS
------------------------------------------------------------------------------

GBWName                                 ... td.gbw
Number of atoms                         ...     45
Number of basis functions               ...    432
Max core memory                         ...   2500 MB

Electric properties:
Dipole moment                           ... YES
Quadrupole moment                       ...  NO
Static polarizability (Dipole/Dipole)   ...  NO
Static polarizability (Dipole/Quad.)    ...  NO
Static polarizability (Quad./Quad.)     ...  NO
Static polarizability (Velocity)        ...  NO
Static hyperpolarizability              ...  NO

Atomic electric properties:
Dipole moment                           ...  NO
Quadrupole moment                       ...  NO
Static polarizability                   ...  NO

Choice of electric origin               ... Center of mass
Position of electric origin             ...     1.161919    -0.316041     0.223549

General magnetic properties:
Magnetizability                         ...  NO

EPR properties:
g-Tensor (aka g-matrix)                 ...  NO
Zero-Field splitting spin-orbit         ...  NO
Zero-field splitting spin-spin          ...  NO
Hyperfine couplings                     ...  NO (   0 nuclei)
Quadrupole couplings                    ...  NO (   0 nuclei)
Contact density                         ...  NO (   0 nuclei)

NMR properties:
Chemical shifts                         ...  NO (   0 nuclei)
Spin-rotation constants                 ...  NO (   0 nuclei)
Spin-spin couplings                     ...  NO (   0 nuclei,    0 pairs)

Choice of magnetic origin               ... GIAO
Position of magnetic origin             ...     0.000000     0.000000     0.000000

Properties with geometric perturbations:
SCF Hessian                             ...  NO
IR spectrum                             ...  NO
VCD spectrum                            ...  NO
X-ray spectroscopy properties:
SCF XES/XAS/RIXS spectra                ...  NO

SCF SOC stabilization energy            ...  NO
Diagonal Born-Oppenheimer correction    ...  NO

-------------
DIPOLE MOMENT
-------------

Method             : SCF
Type of density    : Electron Density
Multiplicity       :   1
Irrep              :   0
Energy             :  -999.8172899223250170 Eh
Basis              : AO
                                X                 Y                 Z
Electronic contribution:     25.880083872      -6.885251386       2.170411170
Nuclear contribution   :    -25.672005244       7.454069920      -1.737094616
                        -----------------------------------------
Total Dipole Moment    :      0.208078628       0.568818534       0.433316554
                        -----------------------------------------
Magnitude (a.u.)       :      0.744724430
Magnitude (Debye)      :      1.892939066



--------------------
Rotational spectrum 
--------------------
 
Rotational constants in cm-1:             0.020626             0.003013             0.002967 
Rotational constants in MHz :           618.348684            90.338154            88.963233 

Dipole components along the rotational axes: 
x,y,z [a.u.] :    -0.172037     0.700403     0.185616 
x,y,z [Debye]:    -0.437283     1.780283     0.471799 

 

Dipole moment calculation done in   0.0 sec 

Maximum memory used throughout the entire PROP-calculation: 23.3 MB

--------------------------------
SUGGESTED CITATIONS FOR THIS RUN
--------------------------------

Below you find a list of papers that are relevant to this ORCA run
We neither can nor want to force you to cite these papers, but we appreciate if you do
You receive ORCA, which is the product of decades of hard work by many enthusiastic individuals, for free
The only thing we kindly ask in return is that you cite our papers,
We deeply appreciate it, if you show your appreciation for ORCA by not just citing the generic ORCA reference.

Please note that relegating all ORCA citations to the supporting information does *not* help us.
SI sections are not indexed - citations you put there will not count into any citation statistics
But we need these citations in order to attract the funding resources that allow us to do what we are doing

Therefore, if you are a happy ORCA user, please consider citing a few of the papers listed below in the main body of your paper

In addition to the list printed below, the program has created the file td.bibtex that contains the list in bibtex format
You can import this file easily into all common literature databanks and citation aid programs

It goes without saying that in many instances, there are alternative algorithms to achieve similar
results as the ones you have gotten from ORCA. It is, of course, also the case that in some instances
ORCA just re-implements algorithms worked out by others. We are fully aware of that and we are also
fully appreciative of our colleagues work. Hence this citation list should not be read as indicating
that the listed papers, which are focused on our own work, are the only ones worth citing. It simply
meant to make it easier for users to cite ORCA specific papers. It is not a substitute for doing your
own literature research and citing the relevant literature in a scientifically appropriate manner.

List of essential papers. We consider these as the minimum necessary citations

  1. Neese, F.
     Software update: the ORCA program system, version 6.0
     WIRES Comput. Molec. Sci. 2025 15(1), e70019
     doi.org/10.1002/wcms.70019

List of papers to cite with high priority. The work reported in these papers was absolutely
necessary for this run to complete.
Our perspective: the developers of density functionals and basis sets usually get cited in chemistry papers
Good! But without the algorithms to do something with them, the functionals or basis sets would not do anything.
Hence, in our opinion, the algorithm design and method developments papers are equally worthy of getting cited

  1. Neese, F.; Olbrich, G.
     Efficient use of the resolution of the identity approximation in time-dependent density functional calculations with hybrid density functionals
     Chem. Phys. Lett. 2002 362 , 170-178
     doi.org/10.1016/s0009-2614(02)01053-9
  2. Neese, F.
     An improvement of the resolution of the identity approximation for the formation of the Coulomb matrix
     J. Comp. Chem. 2003 24(14), 1740-1747
     doi.org/10.1002/jcc.10318
  3. Neese, F.; Wennmohs, F.; Hansen, A.; Becker, U.
     Efficient, approximate and parallel Hartree-Fock and hybrid DFT calculations. A 'chain-of-spheres' algorithm for the Hartree-Fock exchange
     Chem. Phys. 2009 356(1-3), 98-109
     doi.org/10.1016/j.chemphys.2008.10.036
  4. Garcia-Rates, M.; Neese, F.
     Effect of the Solute Cavity on the Solvation Energy and its Derivatives within the Framework of the Gaussian Charge Scheme
     J. Comput. Chem. 2020 41 , 922-939
     doi.org/10.1002/jcc.26139
  5. Helmich-Paris, B.; de Souza, B.; Neese, F.; Izsák, R.
     An improved chain of spheres for exchange algorithm
     J. Chem. Phys. 2021 155(10), 104109
     doi.org/10.1063/5.0058766
  6. Neese, F.
     The SHARK Integral Generation and Digestion System
     J. Comp. Chem. 2022 44(3), 381
     doi.org/10.1002/jcc.26942

List of suggested additional citations. These are papers that are important in the 'surrounding' of 
of this run, or papers that preceded the highly important papers. If you like your results we are grateful for a citation.

  1. Izsak, R.; Neese, F.
     An overlap fitted chain of spheres exchange method
     J. Chem. Phys. 2011 135 , 144105
     doi.org/10.1063/1.3646921
  2. Izsak, R.; Hansen, A.; Neese, F.
     The resolution of identity and chain of spheres approximations for the LPNO-CCSD singles Fock term
     Molec. Phys. 2012 110 , 2413-2417
     doi.org/10.1080/00268976.2012.687466
  3. Neese, F.
     The ORCA program system
     WIRES Comput. Molec. Sci. 2012 2(1), 73-78
     doi.org/10.1002/wcms.81
  4. Izsak, R.; Neese, F.; Klopper, W.
     Robust fitting techniques in the chain of spheres approximation to the Fock exchange: The role of the complementary space
     J. Chem. Phys. 2013 139 , 
     doi.org/10.1063/1.4819264
  5. Neese, F.
     Software update: the ORCA program system, version 4.0
     WIRES Comput. Molec. Sci. 2018 8(1), 1-6
     doi.org/10.1002/wcms.1327
  6. Neese, F.; Wennmohs, F.; Becker, U.; Riplinger, C.
     The ORCA quantum chemistry program package
     J. Chem. Phys. 2020 152(22), 224108
     doi.org/10.1063/5.0004608
  7. Neese, F.
     Software update: The ORCA program system—Version 5.0
     WIRES Comput. Molec. Sci. 2022 12(1), e1606
     doi.org/10.1002/wcms.1606

List of optional additional citations

  1. Neese, F.
     Approximate second-order SCF convergence for spin unrestricted wavefunctions
     Chem. Phys. Lett. 2000 325(1-3), 93-98
     doi.org/10.1016/s0009-2614(00)00662-x

Timings for individual modules:

Sum of individual times          ...      810.313 sec (=  13.505 min)
Startup calculation              ...        5.532 sec (=   0.092 min)   0.7 %
SCF iterations                   ...      274.605 sec (=   4.577 min)  33.9 %
Property integrals               ...        0.675 sec (=   0.011 min)   0.1 %
Property calculations            ...        0.349 sec (=   0.006 min)   0.0 %
CIS module                       ...      529.152 sec (=   8.819 min)  65.3 %
                             ****ORCA TERMINATED NORMALLY****
TOTAL RUN TIME: 0 days 0 hours 13 minutes 31 seconds 172 msec
