
                                 *****************
                                 * O   R   C   A *
                                 *****************

                                            #,                                       
                                            ###                                      
                                            ####                                     
                                            #####                                    
                                            ######                                   
                                           ########,                                 
                                     ,,################,,,,,                         
                               ,,#################################,,                 
                          ,,##########################################,,             
                       ,#########################################, ''#####,          
                    ,#############################################,,   '####,        
                  ,##################################################,,,,####,       
                ,###########''''           ''''###############################       
              ,#####''   ,,,,##########,,,,          '''####'''          '####       
            ,##' ,,,,###########################,,,                        '##       
           ' ,,###''''                  '''############,,,                           
         ,,##''                                '''############,,,,        ,,,,,,###''
      ,#''                                            '''#######################'''  
     '                                                          ''''####''''         
             ,#######,   #######,   ,#######,      ##                                
            ,#'     '#,  ##    ##  ,#'     '#,    #''#        ,####,    ,#,          
            ##       ##  ##   ,#'  ##            #'  '#       #'       ,# #          
            ##       ##  #######   ##           ,######,      #####,      #          
            '#,     ,#'  ##    ##  '#,     ,#' ,#      #,     #,   #      #          
             '#######'   ##     ##  '#######'  #'      '#     '####' #    #          



                #########################################################
                #                        -***-                          #
                #          Department of theory and spectroscopy        #
                #                                                       #
                #                      Frank Neese                      #
                #                                                       #
                #     Directorship, Architecture, Infrastructure        #
                #                    SHARK, DRIVERS                     #
                #        Core code/Algorithms in most modules           #
                #                                                       #
                #        Max Planck Institute fuer Kohlenforschung      #
                #                Kaiser Wilhelm Platz 1                 #
                #                 D-45470 Muelheim/Ruhr                 #
                #                      Germany                          #
                #                                                       #
                #                  All rights reserved                  #
                #                        -***-                          #
                #########################################################


                         Program Version 6.1.1  -  RELEASE   -


 With contributions from (in alphabetic order):
[Max-Planck-Institut fuer Kohlenforschung]                               
  Daniel Aravena         : Magnetic Suceptibility                        
  Michael Atanasov       : Ab Initio Ligand Field Theory (pilot matlab implementation)
  Alexander A. Auer      : GIAO ZORA, VPT2 properties, NMR spectrum      
  Ute Becker             : All parallelization in ORCA, NUMFREQ, NUMCALC 
  Giovanni Bistoni       : ED, misc. LED, open-shell LED, HFLD           
  Dmytro Bykov           : pre 5.0 version of the SCF Hessian            
  Marcos Casanova-Páez   : Triplet and SCS-CIS(D). UHF-(DLPNO)-IP/EA/STEOM-CCSD. UHF-CVS-IP/STEOM-CCSD   
  Vijay G. Chilkuri      : MRCI spin determinant printing, contributions to CSF-ICE 
  Pauline Colinet        : FMM embedding                                 
  Dipayan Datta          : RHF DLPNO-CCSD density                        
  Achintya Kumar Dutta   : EOM-CC, STEOM-CC                              
  Nicolas Foglia         : Exact transition moments, OPA infrastructure, MCD improvements    
  Dmitry Ganyushin       : Spin-Orbit,Spin-Spin,Magnetic field MRCI      
  Miquel Garcia-Rates    : C-PCM and meta-GGA Hessian, CCSD/C-PCM, Gaussian charge scheme 
  Tiago L. C. Gouveia    : GS-ROHF, GS-ROCIS                             
  Yang Guo               : DLPNO-NEVPT2, F12-NEVPT2, CIM, IAO-localization        
  Andreas Hansen         : Spin unrestricted coupled pair/coupled cluster methods 
  Ingolf Harden          : AUTO-CI MPn and infrastructure                
  Benjamin Helmich-Paris : MC-RPA, TRAH-(SCF,CASSCF), AVAS, COSX integrals, SCF dyn. polar., MC-PDFT, srDFT 
  Lee Huntington         : MR-EOM, pCC                                   
  Robert Izsak           : Overlap fitted RIJCOSX, COSX-SCS-MP3, EOM     
  Riya Kayal             : Wick's Theorem for AUTO-CI, AUTO-CI UHF-CCSDT 
  Emily Kempfer          : AUTO-CI RHF CISDT and CCSDT, approximate NEVPT4
  Christian Kollmar      : KDIIS, OOCD, Brueckner-CCSD(T), CCSD density, CASPT2, CASPT2-K, improved NEVPT2 
  Axel Koslowski         : Symmetry handling                             
  Simone Kossmann        : meta-GGA functionals, TD-DFT gradient, OOMP2, (MP2 Hessian; deprecated post 5.0) 
  Lucas Lang             : DCDCAS, Hyperfine gauge corrections, ICE-SOC+SSC
  Marvin Lechner         : AUTO-CI (C++ implementation), FIC-MRCC        
  Spencer Leger          : CASSCF response                               
  Dagmar Lenk            : GEPOL surface, SMD, ORCA-2-JSON               
  Dimitrios Liakos       : Extrapolation schemes; Compound Job, Property file
  Dimitrios Manganas     : Further ROCIS development; embedding schemes. LFT, Crystal Embedding 
  Dimitrios Pantazis     : SARC Basis sets                               
  Anastasios Papadopoulos: AUTO-CI, single reference methods and gradients 
  Taras Petrenko         : pre 6.0 DFT Hessian and TD-DFT gradient,  ECA, NRVS 
  Petra Pikulova         : Analytic Raman intensities                    
  Peter Pinski           : DLPNO-MP2, DLPNO-MP2 Gradient                 
  Shashank Vittal Rao    : ES-AILFT, MagRelax                            
  Christoph Reimann      : Effective Core Potentials                     
  Marius Retegan         : Local ZFS, SOC                                
  Christoph Riplinger    : Optimizer, TS searches, QM/MM, DLPNO-CCSD(T), (RO)-DLPNO pert. Triples 
  Michael Roemelt        : Original ROCIS implementation, recursive CI coupling coefficients
  Masaaki Saitow         : Open-shell DLPNO-CCSD energy and density      
  Barbara Sandhoefer     : DKH picture change effects                    
  Yorick L. A. Schmerwitz: GMF and freeze-and-release deltaSCF, NEB S-IDPP initial path                    
  Kantharuban Sivalingam : CASSCF convergence/infrastructure, NEVPT2, NEVPT3, NEVPT4(SD), FIC-MRCI and CEPA variants
  Bernardo de Souza      : ESD, SOC TD-DFT                               
  Georgi L. Stoychev     : AutoAux, RI-MP2 NMR, DLPNO-MP2 response, X2C  
  Van Anh Tran           : RI-MP2 g-tensors                              
  Willem Van den Heuvel  : Paramagnetic NMR                              
  Zikuan Wang            : NOTCH, Electric field optimization            
  Frank Wennmohs         : Technical directorship and infrastructure     
  Hang Xu                : AUTO-CI-Response properties                   
                                                                         
[FACCTs GmbH]                                                            
  Markus Bursch, Nicolas Foglia, Miquel Garcia-Rates, Ingolf Harden, Hagen Neugebauer, Anastasios Papadopoulos, 
  Christoph Riplinger, Bernardo de Souza, Georgi L. Stoychev                                                    
                                                                 
  APM, various basis sets, CI-OPT, improved COSX, DLPNO-Multilevel,           
  DOCKER, DRACO, updates on ESD, Fragmentator, GOAT, IRC, LR-CPCM, L-BFGS, MBIS, meta-GGA TD-DFT gradient, ML-optimized integration grids, 
  MM, NACMEs, nearIR, NEB, NEB-TS, NL-DFT gradient (VV10), 2- and 3-layer-ONIOM, interface openCOSMO-RS, QMMM,   
  Crystal-QMMM, RESP, rigid body optimization, SF, symmetry and pop. for TD-DFT, various functionals, SOLVATOR                                   
                                                                         
[Other institutions]                                                     
  V. Asgeirsson          : NEB                                           
  Christoph Bannwarth    : sTDA-DFT, sTD-DFT, PBEh-3c, B97-3c, D3        
  Giovanni Bistoni       : ETS/NOCV, ADLD/ADEX, COVALED                  
  Martin Brehm           : Molecular dynamics                            
  Ronald Cardenas        : ETS/NOCV                                      
  Martina Colucci        : COVALED                                       
  Sebastian Ehlert       : rSCAN, r2SCAN, r2SCAN-3c, D4, dhf basis sets  
  Marvin Friede          : D4 for Fr, Ra, Ac-Lr                          
  Lars Goerigk           : TD-DFT with DH, B97 family of functionals     
  Stefan Grimme          : VdW corrections, initial TS optimization, DFT functionals, gCP, sTDA/sTD-DF 
  Waldemar Hujo          : DFT-NL                                        
  H. Jonsson             : NEB                                           
  Holger Kruse           : gCP                                           
  Marcel Mueller         : wB97X-3c, vDZP basis set                      
  Hagen Neugebauer       : wr2SCAN, Native XTB                           
  Gianluca Regni         : ADLD/ADEX                                     
  Tobias Risthaus        : pre 6.0 range-separated hybrid DFT and stability analysis
  Lukas Wittmann         : regularized MP2, r2SCAN double-hybrids, wr2SCAN        
                                                                         
We gratefully acknowledge several colleagues who have allowed us to      
interface, adapt or use parts of their codes:                            
  Ed Valeev, F. Pavosevic, A. Kumar             : LibInt (2-el integral package), F12 methods 
  Garnet Chan, S. Sharma, J. Yang, R. Olivares  : DMRG                   
  Ulf Ekstrom                                   : XCFun DFT Library      
  Mihaly Kallay                                 : mrcc  (arbitrary order and MRCC methods)
  Frank Weinhold                                : gennbo (NPA and NBO analysis)           
  Simon Mueller                                 : openCOSMO-RS                            
  Christopher J. Cramer and Donald G. Truhlar   : smd solvation model                     
  S Lehtola, MJT Oliveira, MAL Marques          : LibXC Library                           
  Liviu Ungur et al                             : ANISO software                          


 Your calculation uses the libint2 library for the computation of 2-el integrals
 For citations please refer to: http://libint.valeyev.net

 Your ORCA version has been built with support for libXC version: 7.0.0
 For citations please refer to: https://libxc.gitlab.io

 This ORCA versions uses:
   CBLAS   interface :  Fast vector & matrix operations
   LAPACKE interface :  Fast linear algebra routines
   Shared memory     :  Shared parallel matrices


  ***********************************
  * Starting time: Tue Jul 21 19:53:36 2026
  * Host name:     DESKTOP-19Q153E
  * Process ID:    33468
  * Working dir.:  C:\Users\ysm04\Documents\etc\uv_vis\calculations\02_tddft_orca\enolB\enolB_c010\b3lyp_631+gd\ethanol\dftopt22
  ***********************************

NOTE: MaxCore=2500 MB was set to SCF,MP2,MDCI,CIPSI,MRCI,RASCI and CIS
      => If you want to overwrite this, your respective input block should be placed after the MaxCore statement
================================================================================

----- Orbital basis set information -----
Your calculation utilizes the basis: 6-31+G(d)
   H-He, Li-Ne : W. J. Hehre, R. Ditchfield and J.A. Pople, J. Chem. Phys. 56, 2257 (1972).
                 Note: He and Ne are unpublished basis sets taken from the Gaussian program.
                 Note: Li and B from J. D. Dill and J. A. Pople, J. Chem. Phys. 62, 2921 (1975).
   Na - Ar     : M. M. Francl, W. J. Pietro, W. J. Hehre, J. S. Binkley, M. S. Gordon, 
                 D. J. DeFrees and J. A. Pople, J. Chem. Phys. 77, 3654 (1982).
   K - Zn      : V. A. Rassolov, J. A. Pople, M. A. Ratner, and T. L. Windus, J. Chem. Phys. 109, 1223 (1998).
   Additional Pol./Diff. from the 6-311G equivalent.

----- AuxJ basis set information -----
Your calculation utilizes the auxiliary basis: def2/J
   H-Rn: F. Weigend, Phys. Chem. Chem. Phys. 8, 1057 (2006).
   Fr-Lr: K. Eichkorn, F. Weigend, O. Treutler, R. Ahlrichs; Theor. Chem. Acc. 97, 119 (1997).

================================================================================
                                        WARNINGS
                       Please study these warnings very carefully!
================================================================================


WARNING: CIS/ROCIS methods need fully converged wavefunctions
  ===> : Setting SCFConvForced true
         You can overwrite this default with %scf ConvForced false 


================================================================================
                                       INPUT FILE
================================================================================
NAME = td.inp
|  1> # enolB / enolB_c010 / b3lyp_631+gd / solvent=ethanol
|  2> ! B3LYP 6-31+G(d) RIJCOSX def2/J TightSCF CPCM(Ethanol)
|  3> %pal nprocs 4 end
|  4> %maxcore 2500
|  5> %scf
|  6>   MaxIter 300
|  7> end
|  8> %tddft
|  9>   nroots 22
| 10>   tda    true
| 11>   maxdim 5
| 12> end
| 13> * xyz 0 1
| 14> C      8.2893714220     1.3055778487     1.2458897536
| 15> O      7.1190654297     1.7868347539     0.6124264773
| 16> C      6.0568043875     0.9569077386     0.4767656974
| 17> C      6.0161258165    -0.3689744735     0.9034869147
| 18> C      4.8725352747    -1.1181086879     0.7117160505
| 19> C      3.7376348181    -0.5718451750     0.1123681718
| 20> C      3.7902251910     0.7562229678    -0.3227931905
| 21> C      4.9302814068     1.5043306631    -0.1482888624
| 22> C      2.5434964411    -1.4035469551    -0.0462360839
| 23> O      2.7625808456    -2.7133826939    -0.0514842269
| 24> C      1.2788316825    -0.8828959409    -0.1469319192
| 25> C      0.1274333765    -1.7295060298    -0.2523019779
| 26> O      0.2224746705    -2.9763858526    -0.2714635265
| 27> C     -1.2115130738    -1.1007484835    -0.2953972072
| 28> C     -1.4425257642     0.1911447882    -0.7590918918
| 29> C     -2.7201990112     0.7200291763    -0.7659831351
| 30> C     -3.8132848221    -0.0094725784    -0.3084760196
| 31> C     -5.2276566942     0.5463475000    -0.2800965475
| 32> C     -5.7466555718     0.5130586025     1.1656787013
| 33> C     -6.1235925357    -0.3238550377    -1.1745337615
| 34> C     -5.3068686851     1.9912707416    -0.7822757407
| 35> C     -3.5764313890    -1.3106129335     0.1349533545
| 36> C     -2.3077435994    -1.8481358595     0.1362426883
| 37> H      8.9809919260     2.1457288292     1.2497186492
| 38> H      8.7279454133     0.4730141057     0.6891481371
| 39> H      8.0836495734     0.9960262913     2.2741846284
| 40> H      6.8667722214    -0.8255634352     1.3829872451
| 41> H      4.8439242658    -2.1453600749     1.0419795645
| 42> H      2.9427888918     1.1956637386    -0.8240068628
| 43> H      4.9836540500     2.5262677455    -0.4893818482
| 44> H      1.8702481270    -3.1622503810    -0.1352036196
| 45> H      1.1373618961     0.1792345697    -0.0806152700
| 46> H     -0.6291679268     0.7858651953    -1.1458253781
| 47> H     -2.8507800018     1.7223566826    -1.1392727233
| 48> H     -6.7539452849     0.9212379769     1.2083837780
| 49> H     -5.1040282494     1.1094670864     1.8101178193
| 50> H     -5.7735470482    -0.5006505817     1.5552038262
| 51> H     -7.1373356125     0.0702904592    -1.1814552498
| 52> H     -6.1594216737    -1.3504990220    -0.8211532712
| 53> H     -5.7469179127    -0.3274023362    -2.1953736544
| 54> H     -4.9867225936     2.0639910248    -1.8189114530
| 55> H     -6.3369647216     2.3362685788    -0.7244150700
| 56> H     -4.6968113847     2.6518150358    -0.1707874307
| 57> H     -4.3936364700    -1.9214818255     0.4869638227
| 58> H     -2.1384471111    -2.8582737229     0.4819575222
| 59> *
| 60> 
| 61>                          ****END OF INPUT****
================================================================================

                       ****************************
                       * Single Point Calculation *
                       ****************************

---------------------------------
CARTESIAN COORDINATES (ANGSTROEM)
---------------------------------
  C      8.289371    1.305578    1.245890
  O      7.119065    1.786835    0.612426
  C      6.056804    0.956908    0.476766
  C      6.016126   -0.368974    0.903487
  C      4.872535   -1.118109    0.711716
  C      3.737635   -0.571845    0.112368
  C      3.790225    0.756223   -0.322793
  C      4.930281    1.504331   -0.148289
  C      2.543496   -1.403547   -0.046236
  O      2.762581   -2.713383   -0.051484
  C      1.278832   -0.882896   -0.146932
  C      0.127433   -1.729506   -0.252302
  O      0.222475   -2.976386   -0.271464
  C     -1.211513   -1.100748   -0.295397
  C     -1.442526    0.191145   -0.759092
  C     -2.720199    0.720029   -0.765983
  C     -3.813285   -0.009473   -0.308476
  C     -5.227657    0.546347   -0.280097
  C     -5.746656    0.513059    1.165679
  C     -6.123593   -0.323855   -1.174534
  C     -5.306869    1.991271   -0.782276
  C     -3.576431   -1.310613    0.134953
  C     -2.307744   -1.848136    0.136243
  H      8.980992    2.145729    1.249719
  H      8.727945    0.473014    0.689148
  H      8.083650    0.996026    2.274185
  H      6.866772   -0.825563    1.382987
  H      4.843924   -2.145360    1.041980
  H      2.942789    1.195664   -0.824007
  H      4.983654    2.526268   -0.489382
  H      1.870248   -3.162250   -0.135204
  H      1.137362    0.179235   -0.080615
  H     -0.629168    0.785865   -1.145825
  H     -2.850780    1.722357   -1.139273
  H     -6.753945    0.921238    1.208384
  H     -5.104028    1.109467    1.810118
  H     -5.773547   -0.500651    1.555204
  H     -7.137336    0.070290   -1.181455
  H     -6.159422   -1.350499   -0.821153
  H     -5.746918   -0.327402   -2.195374
  H     -4.986723    2.063991   -1.818911
  H     -6.336965    2.336269   -0.724415
  H     -4.696811    2.651815   -0.170787
  H     -4.393636   -1.921482    0.486964
  H     -2.138447   -2.858274    0.481958

----------------------------
CARTESIAN COORDINATES (A.U.)
----------------------------
  NO LB      ZA    FRAG     MASS         X           Y           Z
   0 C     6.0000    0    12.011   15.664642    2.467185    2.354390
   1 O     8.0000    0    15.999   13.453084    3.376628    1.157318
   2 C     6.0000    0    12.011   11.445702    1.808294    0.900957
   3 C     6.0000    0    12.011   11.368830   -0.697261    1.707343
   4 C     6.0000    0    12.011    9.207757   -2.112919    1.344948
   5 C     6.0000    0    12.011    7.063106   -1.080631    0.212345
   6 C     6.0000    0    12.011    7.162488    1.429054   -0.609991
   7 C     6.0000    0    12.011    9.316882    2.842773   -0.280225
   8 C     6.0000    0    12.011    4.806512   -2.652319   -0.087374
   9 O     8.0000    0    15.999    5.220521   -5.127550   -0.097291
  10 C     6.0000    0    12.011    2.416642   -1.668432   -0.277661
  11 C     6.0000    0    12.011    0.240814   -3.268293   -0.476782
  12 O     8.0000    0    15.999    0.420416   -5.624554   -0.512992
  13 C     6.0000    0    12.011   -2.289428   -2.080113   -0.558220
  14 C     6.0000    0    12.011   -2.725979    0.361211   -1.434476
  15 C     6.0000    0    12.011   -5.140431    1.360658   -1.447498
  16 C     6.0000    0    12.011   -7.206064   -0.017901   -0.582935
  17 C     6.0000    0    12.011   -9.878839    1.032447   -0.529306
  18 C     6.0000    0    12.011  -10.859605    0.969540    2.202814
  19 C     6.0000    0    12.011  -11.571913   -0.611997   -2.219547
  20 C     6.0000    0    12.011  -10.028528    3.762956   -1.478287
  21 C     6.0000    0    12.011   -6.758476   -2.476700    0.255025
  22 C     6.0000    0    12.011   -4.361003   -3.492471    0.257461
  23 H     1.0000    0     1.008   16.971615    4.054840    2.361626
  24 H     1.0000    0     1.008   16.493427    0.893867    1.302301
  25 H     1.0000    0     1.008   15.275884    1.882217    4.297586
  26 H     1.0000    0     1.008   12.976319   -1.560089    2.613467
  27 H     1.0000    0     1.008    9.153690   -4.054143    1.969056
  28 H     1.0000    0     1.008    5.561065    2.259477   -1.557147
  29 H     1.0000    0     1.008    9.417741    4.773954   -0.924798
  30 H     1.0000    0     1.008    3.534257   -5.975787   -0.255498
  31 H     1.0000    0     1.008    2.149302    0.338704   -0.152341
  32 H     1.0000    0     1.008   -1.188955    1.485070   -2.165296
  33 H     1.0000    0     1.008   -5.387193    3.254782   -2.152913
  34 H     1.0000    0     1.008  -12.763107    1.740887    2.283514
  35 H     1.0000    0     1.008   -9.645216    2.096589    3.420627
  36 H     1.0000    0     1.008  -10.910423   -0.946092    2.938909
  37 H     1.0000    0     1.008  -13.487610    0.132830   -2.232627
  38 H     1.0000    0     1.008  -11.639620   -2.552073   -1.551755
  39 H     1.0000    0     1.008  -10.860101   -0.618701   -4.148655
  40 H     1.0000    0     1.008   -9.423540    3.900378   -3.437245
  41 H     1.0000    0     1.008  -11.975128    4.414908   -1.368946
  42 H     1.0000    0     1.008   -8.875687    5.011204   -0.322741
  43 H     1.0000    0     1.008   -8.302770   -3.631074    0.920228
  44 H     1.0000    0     1.008   -4.041079   -5.401355    0.910768

--------------------------------
INTERNAL COORDINATES (ANGSTROEM)
--------------------------------
 C      0   0   0     0.000000000000     0.00000000     0.00000000
 O      1   0   0     1.415097186357     0.00000000     0.00000000
 C      2   1   0     1.354836233537   119.00715459     0.00000000
 C      3   2   1     1.393452325627   125.10575550   359.24950644
 C      4   3   2     1.380498990523   119.86667738   179.89567112
 C      5   4   3     1.394855100582   121.41115964   359.08565381
 C      6   5   4     1.398533571453   118.35922719     1.40841977
 C      7   6   5     1.374716356008   120.56123155   359.30566755
 C      6   5   4     1.463847541369   119.19422008   181.04458530
 O      9   6   5     1.328041860010   115.22838756   336.95539275
 C      9   6   5     1.371347542193   122.99308905   155.25547101
 C     11   9   6     1.433028105432   121.47098307   182.31649524
 O     12  11   9     1.250643556340   121.94288694   359.23571740
 C     12  11   9     1.479855008975   118.56122915   177.24434775
 C     14  12  11     1.391893619899   123.65705808    26.28880933
 C     15  14  12     1.382828663034   120.66360995   180.30358975
 C     16  15  14     1.391517934069   121.57768985     0.28904626
 C     17  16  15     1.519930638739   123.05248901   178.98969217
 C     18  17  16     1.536468045776   108.90344170   238.91800106
 C     18  17  16     1.536219847057   108.94660318   119.18545832
 C     18  17  16     1.531751172907   112.76541779   358.96707579
 C     17  16  15     1.394881852436   117.39687214   358.74128545
 C     22  17  16     1.377861119938   121.36861669     0.79403624
 H      1   2   3     1.088212870733   105.34472735   180.94016281
 H      1   2   3     1.093375854657   111.26952289    62.29998535
 H      1   2   3     1.093404771903   111.20282207   299.55263633
 H      4   3   2     1.077957955103   121.07849174   359.81553376
 H      5   4   3     1.079415578266   119.72809667   179.92003233
 H      7   6   5     1.078179770513   120.14111029   177.64127450
 H      8   7   6     1.078679036780   121.09498435   179.38572224
 H     10   9   6     1.002371596725   107.16585536   178.17321564
 H     11   9   6     1.073560813356   119.51230194   358.20814608
 H     15  14  12     1.079261842051   120.38110680     2.06849291
 H     16  15  14     1.077523522551   118.00003185   180.33384422
 H     19  18  17     1.087688692310   109.97638308   179.17324181
 H     19  18  17     1.088106029747   110.23849731    59.52767288
 H     19  18  17     1.086305336709   111.46865095   299.24221838
 H     20  18  17     1.087691870654   109.99854589   181.05762361
 H     20  18  17     1.086351401966   111.41764747    60.96200520
 H     20  18  17     1.088122438825   110.25438860   300.71627813
 H     21  18  17     1.087380043732   111.12520702    61.77538914
 H     21  18  17     1.087873710179   109.31026168   180.82551122
 H     21  18  17     1.087385225041   111.07873646   299.87694122
 H     22  17  16     1.079303626116   120.20277711   180.81734069
 H     23  22  17     1.080998866976   120.60010504   180.04610319

---------------------------
INTERNAL COORDINATES (A.U.)
---------------------------
 C      0   0   0     0.000000000000     0.00000000     0.00000000
 O      1   0   0     2.674146135098     0.00000000     0.00000000
 C      2   1   0     2.560269437698   119.00715459     0.00000000
 C      3   2   1     2.633243276111   125.10575550   359.24950644
 C      4   3   2     2.608765020243   119.86667738   179.89567112
 C      5   4   3     2.635894136603   121.41115964   359.08565381
 C      6   5   4     2.642845439141   118.35922719     1.40841977
 C      7   6   5     2.597837424678   120.56123155   359.30566755
 C      6   5   4     2.766270955001   119.19422008   181.04458530
 O      9   6   5     2.509635409802   115.22838756   336.95539275
 C      9   6   5     2.591471289171   122.99308905   155.25547101
 C     11   9   6     2.708030661478   121.47098307   182.31649524
 O     12  11   9     2.363373812637   121.94288694   359.23571740
 C     12  11   9     2.796520684874   118.56122915   177.24434775
 C     14  12  11     2.630297749162   123.65705808    26.28880933
 C     15  14  12     2.613167463272   120.66360995   180.30358975
 C     16  15  14     2.629587805829   121.57768985     0.28904626
 C     17  16  15     2.872252649772   123.05248901   178.98969217
 C     18  17  16     2.903503820037   108.90344170   238.91800106
 C     18  17  16     2.903034792432   108.94660318   119.18545832
 C     18  17  16     2.894590222106   112.76541779   358.96707579
 C     17  16  15     2.635944690281   117.39687214   358.74128545
 C     22  17  16     2.603780167261   121.36861669     0.79403624
 H      1   2   3     2.056424301094   105.34472735   180.94016281
 H      1   2   3     2.066180926743   111.26952289    62.29998535
 H      1   2   3     2.066235572419   111.20282207   299.55263633
 H      4   3   2     2.037045319026   121.07849174   359.81553376
 H      5   4   3     2.039799827611   119.72809667   179.92003233
 H      7   6   5     2.037464489404   120.14111029   177.64127450
 H      8   7   6     2.038407965916   121.09498435   179.38572224
 H     10   9   6     1.894207802231   107.16585536   178.17321564
 H     11   9   6     2.028735925352   119.51230194   358.20814608
 H     15  14  12     2.039509308267   120.38110680     2.06849291
 H     16  15  14     2.036224360479   118.00003185   180.33384422
 H     19  18  17     2.055433747428   109.97638308   179.17324181
 H     19  18  17     2.056222400890   110.23849731    59.52767288
 H     19  18  17     2.052819584197   111.46865095   299.24221838
 H     20  18  17     2.055439753629   109.99854589   181.05762361
 H     20  18  17     2.052906634917   111.41764747    60.96200520
 H     20  18  17     2.056253409554   110.25438860   300.71627813
 H     21  18  17     2.054850486145   111.12520702    61.77538914
 H     21  18  17     2.055783380532   109.31026168   180.82551122
 H     21  18  17     2.054860277400   111.07873646   299.87694122
 H     22  17  16     2.039588268708   120.20277711   180.81734069
 H     23  22  17     2.042791809664   120.60010504   180.04610319

---------------------
BASIS SET INFORMATION
---------------------
There are 3 groups of distinct atoms

 Group   1 Type C   : 11s5p1d contracted to 4s3p1d pattern {6311/311/1}
 Group   2 Type O   : 11s5p1d contracted to 4s3p1d pattern {6311/311/1}
 Group   3 Type H   : 4s contracted to 2s pattern {31}

Atom   0C    basis set group =>   1
Atom   1O    basis set group =>   2
Atom   2C    basis set group =>   1
Atom   3C    basis set group =>   1
Atom   4C    basis set group =>   1
Atom   5C    basis set group =>   1
Atom   6C    basis set group =>   1
Atom   7C    basis set group =>   1
Atom   8C    basis set group =>   1
Atom   9O    basis set group =>   2
Atom  10C    basis set group =>   1
Atom  11C    basis set group =>   1
Atom  12O    basis set group =>   2
Atom  13C    basis set group =>   1
Atom  14C    basis set group =>   1
Atom  15C    basis set group =>   1
Atom  16C    basis set group =>   1
Atom  17C    basis set group =>   1
Atom  18C    basis set group =>   1
Atom  19C    basis set group =>   1
Atom  20C    basis set group =>   1
Atom  21C    basis set group =>   1
Atom  22C    basis set group =>   1
Atom  23H    basis set group =>   3
Atom  24H    basis set group =>   3
Atom  25H    basis set group =>   3
Atom  26H    basis set group =>   3
Atom  27H    basis set group =>   3
Atom  28H    basis set group =>   3
Atom  29H    basis set group =>   3
Atom  30H    basis set group =>   3
Atom  31H    basis set group =>   3
Atom  32H    basis set group =>   3
Atom  33H    basis set group =>   3
Atom  34H    basis set group =>   3
Atom  35H    basis set group =>   3
Atom  36H    basis set group =>   3
Atom  37H    basis set group =>   3
Atom  38H    basis set group =>   3
Atom  39H    basis set group =>   3
Atom  40H    basis set group =>   3
Atom  41H    basis set group =>   3
Atom  42H    basis set group =>   3
Atom  43H    basis set group =>   3
Atom  44H    basis set group =>   3
---------------------------------
AUXILIARY/J BASIS SET INFORMATION
---------------------------------
There are 3 groups of distinct atoms

 Group   1 Type C   : 12s5p4d2f1g contracted to 6s4p3d1f1g pattern {711111/2111/211/2/1}
 Group   2 Type O   : 12s5p4d2f1g contracted to 6s4p3d1f1g pattern {711111/2111/211/2/1}
 Group   3 Type H   : 5s2p1d contracted to 3s1p1d pattern {311/2/1}

Atom   0C    basis set group =>   1
Atom   1O    basis set group =>   2
Atom   2C    basis set group =>   1
Atom   3C    basis set group =>   1
Atom   4C    basis set group =>   1
Atom   5C    basis set group =>   1
Atom   6C    basis set group =>   1
Atom   7C    basis set group =>   1
Atom   8C    basis set group =>   1
Atom   9O    basis set group =>   2
Atom  10C    basis set group =>   1
Atom  11C    basis set group =>   1
Atom  12O    basis set group =>   2
Atom  13C    basis set group =>   1
Atom  14C    basis set group =>   1
Atom  15C    basis set group =>   1
Atom  16C    basis set group =>   1
Atom  17C    basis set group =>   1
Atom  18C    basis set group =>   1
Atom  19C    basis set group =>   1
Atom  20C    basis set group =>   1
Atom  21C    basis set group =>   1
Atom  22C    basis set group =>   1
Atom  23H    basis set group =>   3
Atom  24H    basis set group =>   3
Atom  25H    basis set group =>   3
Atom  26H    basis set group =>   3
Atom  27H    basis set group =>   3
Atom  28H    basis set group =>   3
Atom  29H    basis set group =>   3
Atom  30H    basis set group =>   3
Atom  31H    basis set group =>   3
Atom  32H    basis set group =>   3
Atom  33H    basis set group =>   3
Atom  34H    basis set group =>   3
Atom  35H    basis set group =>   3
Atom  36H    basis set group =>   3
Atom  37H    basis set group =>   3
Atom  38H    basis set group =>   3
Atom  39H    basis set group =>   3
Atom  40H    basis set group =>   3
Atom  41H    basis set group =>   3
Atom  42H    basis set group =>   3
Atom  43H    basis set group =>   3
Atom  44H    basis set group =>   3


           ************************************************************
           *        Program running with 4 parallel MPI-processes     *
           *              working on a common directory               *
           ************************************************************
------------------------------------------------------------------------------
                             ORCA STARTUP CALCULATIONS
                           -- RI-GTO INTEGRALS CHOSEN --
------------------------------------------------------------------------------
------------------------------------------------------------------------------
                   ___                                                        
                  /   \      - P O W E R E D   B Y -                         
                 /     \                                                     
                 |  |  |   _    _      __       _____    __    __             
                 |  |  |  | |  | |    /  \     |  _  \  |  |  /  |          
                  \  \/   | |  | |   /    \    | | | |  |  | /  /          
                 / \  \   | |__| |  /  /\  \   | |_| |  |  |/  /          
                |  |  |   |  __  | /  /__\  \  |    /   |      \           
                |  |  |   | |  | | |   __   |  |    \   |  |\   \          
                \     /   | |  | | |  |  |  |  | |\  \  |  | \   \       
                 \___/    |_|  |_| |__|  |__|  |_| \__\ |__|  \__/        
                                                                              
                      - O R C A' S   B I G   F R I E N D -                    
                                      &                                       
                       - I N T E G R A L  F E E D E R -                       
                                                                              
 v1 FN, 2020, v2 2021, v3 2022-2024                                           
------------------------------------------------------------------------------


----------------------
SHARK INTEGRAL PACKAGE
----------------------

Number of atoms                             ...     45
Number of basis functions                   ...    458
Number of shells                            ...    228
Maximum angular momentum                    ...      2
Integral batch strategy                     ... SHARK/LIBINT Hybrid
RI-J (if used) integral strategy            ... SPLIT-RIJ (Revised 2003 algorithm where possible)
Printlevel                                  ...      1
Contraction scheme used                     ... SEGMENTED contraction
Prescreening option                         ... SCHWARTZ
   Thresh                                   ... 2.500e-11
   Tcut                                     ... 2.500e-12
   Tpresel                                  ... 2.500e-12 
Coulomb Range Separation                    ... NOT USED
Exchange Range Separation                   ... NOT USED
Multipole approximations                    ... NOT USED
Finite Nucleus Model                        ... NOT USED
CABS basis                                  ... NOT available
Auxiliary Coulomb fitting basis             ... AVAILABLE
   # of basis functions in Aux-J            ...   1369
   # of shells in Aux-J                     ...    455
   Maximum angular momentum in Aux-J        ...      4
Auxiliary J/K fitting basis                 ... NOT available
Auxiliary Correlation fitting basis         ... NOT available
Auxiliary 'external' fitting basis          ... NOT available

Checking pre-screening integrals            ... done (  0.0 sec) Dimension = 228
   => SHARK Basis and OBASIS are compatible. Storing Pre-screening
Shell pair information
Shell pair cut-off parameter TPreSel        ...   2.5e-12
Total number of shell pairs                 ...     26106
Shell pairs after pre-screening             ...     18844
Total number of primitive shell pairs       ...    115509
Primitive shell pairs kept                  ...     51364
          la=0 lb=0:   6258 shell pairs
          la=1 lb=0:   7333 shell pairs
          la=1 lb=1:   2100 shell pairs
          la=2 lb=0:   1835 shell pairs
          la=2 lb=1:   1181 shell pairs
          la=2 lb=2:    137 shell pairs

Checking whether 4 symmetric matrices of dimension 458 fit in memory
:Max Core in MB      =   2500.00
 MB in use           =     22.52
 MB left             =   2477.48
 MB needed           =      3.21
 Data fit in memory  = YES
Calculating RI/J V-Matrix + Cholesky decomp.... done (  0.2 sec)
Calculating Nuclear repulsion               ... done (  0.0 sec) ENN=   1742.620917142945 Eh

Diagonalization of the overlap matrix:
Smallest eigenvalue                        ... 1.788e-07
Time for diagonalization                   ...    0.047 sec
Threshold for overlap eigenvalues          ... 1.000e-07
Number of eigenvalues below threshold      ... 0

IMPORTANT:
Smallest eigenvalue of S below the DiffSThresh (1.000e-06) while
Thresh>1e-12 and/or TCut>1e-13! In order to avoid SCF convergence issues,
Thresh will be set to at least 1e-12 and TCut to at least 1e-13.
This can be turned off by adding %SCF DiffSThresh -1 END to the input.

Time for construction of square roots      ...    0.031 sec
Total time needed                          ...    0.080 sec

-------------------
DFT GRID GENERATION
-------------------

General Integration Accuracy     IntAcc      ... 4.388
Radial Grid Type                 RadialGrid  ... OptM3 with GC (2021)
Angular Grid (max. ang.)         AngularGrid ... 4 (Lebedev-302)
Angular grid pruning method      GridPruning ... 4 (adaptive)
Weight generation scheme         WeightScheme... mBecke (2022)
Basis function cutoff            BFCut       ... 1.0000e-11
Integration weight cutoff        WCut        ... 1.0000e-14
Partially contracted basis set               ... off
Rotationally invariant grid construction     ... off
Angular grids for H and He will be reduced by one unit
Diffuse basis detected: some atoms will have their outermost
                        angular grid increased by 1.

Total number of grid points                  ...   212948
Total number of batches                      ...     3350
Average number of points per batch           ...       63
Average number of grid points per atom       ...     4732

--------------------
COSX GRID GENERATION
--------------------

GRIDX 1
-------
General Integration Accuracy     IntAcc      ... 3.816
Radial Grid Type                 RadialGrid  ... OptM3 with GC (2021)
Angular Grid (max. ang.)         AngularGrid ... 1 (Lebedev-50)
Angular grid pruning method      GridPruning ... 4 (adaptive)
Weight generation scheme         WeightScheme... mBecke (2022)
Basis function cutoff            BFCut       ... 1.0000e-11
Integration weight cutoff        WCut        ... 1.0000e-14
Partially contracted basis set               ... on
Rotationally invariant grid construction     ... off
Angular grids for H and He will be reduced by one unit
Diffuse basis detected: some atoms will have their outermost
                        angular grid increased by 1.

Total number of grid points                  ...    27154
Total number of batches                      ...      237
Average number of points per batch           ...      114
Average number of grid points per atom       ...      603
UseSFitting                                  ... on

GRIDX 2
-------
General Integration Accuracy     IntAcc      ... 4.020
Radial Grid Type                 RadialGrid  ... OptM3 with GC (2021)
Angular Grid (max. ang.)         AngularGrid ... 2 (Lebedev-110)
Angular grid pruning method      GridPruning ... 4 (adaptive)
Weight generation scheme         WeightScheme... mBecke (2022)
Basis function cutoff            BFCut       ... 1.0000e-11
Integration weight cutoff        WCut        ... 1.0000e-14
Partially contracted basis set               ... on
Rotationally invariant grid construction     ... off
Angular grids for H and He will be reduced by one unit
Diffuse basis detected: some atoms will have their outermost
                        angular grid increased by 1.

Total number of grid points                  ...    62558
Total number of batches                      ...      517
Average number of points per batch           ...      121
Average number of grid points per atom       ...     1390
UseSFitting                                  ... on

GRIDX 3
-------
General Integration Accuracy     IntAcc      ... 4.338
Radial Grid Type                 RadialGrid  ... OptM3 with GC (2021)
Angular Grid (max. ang.)         AngularGrid ... 3 (Lebedev-194)
Angular grid pruning method      GridPruning ... 4 (adaptive)
Weight generation scheme         WeightScheme... mBecke (2022)
Basis function cutoff            BFCut       ... 1.0000e-11
Integration weight cutoff        WCut        ... 1.0000e-14
Partially contracted basis set               ... on
Rotationally invariant grid construction     ... off
Angular grids for H and He will be reduced by one unit
Diffuse basis detected: some atoms will have their outermost
                        angular grid increased by 1.

Total number of grid points                  ...   134789
Total number of batches                      ...     1075
Average number of points per batch           ...      125
Average number of grid points per atom       ...     2995
UseSFitting                                  ... on
Grids setup in   6.5 sec
Initializing property integral containers    ... done (  0.2 sec)

SHARK setup successfully completed in   7.5 seconds

Maximum memory used throughout the entire STARTUP-calculation: 66.7 MB


           ************************************************************
           *        Program running with 4 parallel MPI-processes     *
           *              working on a common directory               *
           ************************************************************
-------------------------------------------------------------------------------
                                 ORCA GUESS
                   Start orbitals & Density for SCF / CASSCF
-------------------------------------------------------------------------------

------------
SCF SETTINGS
------------
Hamiltonian:
 Density Functional     Method          .... DFT(GTOs)
 Exchange Functional    Exchange        .... B88
   X-Alpha parameter    XAlpha          ....  0.666667
   Becke's b parameter  XBeta           ....  0.004200
 Correlation Functional Correlation     .... LYP
 LDA part of GGA corr.  LDAOpt          .... VWN-5
 Gradients option       PostSCFGGA      .... off
 Hybrid DFT is turned on
   Fraction HF Exchange ScalHFX         ....  0.200000
   Scaling of DF-GGA-X  ScalDFX         ....  0.720000
   Scaling of DF-GGA-C  ScalDFC         ....  0.810000
   Scaling of DF-LDA-C  ScalLDAC        ....  1.000000
   Perturbative correction              ....  0.000000
   NL short-range parameter             ....  4.800000
 RI-approximation to the Coulomb term is turned on
   Number of AuxJ basis functions       .... 1369
   RIJ-COSX (HFX calculated with COS-X)).... on


General Settings:
 Integral files         IntName         .... td
 Hartree-Fock type      HFTyp           .... RHF
 Total Charge           Charge          ....    0
 Multiplicity           Mult            ....    1
 Number of Electrons    NEL             ....  166
 Basis Dimension        Dim             ....  458
 Nuclear Repulsion      ENuc            ....   1742.6209171429 Eh

Convergence Acceleration:
 AO-DIIS                CNVDIIS         .... on
   Start iteration      DIISMaxIt       ....    12
   Startup error        DIISStart       ....  0.200000
   # of expansion vecs  DIISMaxEq       ....     5
   Bias factor          DIISBfac        ....   1.050
   Max. coefficient     DIISMaxC        ....  10.000
 MO-DIIS                CNVKDIIS        .... off
 Trust-Rad. Augm. Hess. CNVTRAH         .... auto
   Auto Start mean grad. ratio tolernc. ....  1.125000
   Auto Start start iteration           ....    50
   Auto Start num. interpolation iter.  ....    10
   Max. Number of Micro iterations      ....    24
   Max. Number of Macro iterations      .... Maxiter - #DIIS iter
   Number of Davidson start vectors     ....     2
   Converg. threshold    (grad. norm)   ....   1.000e-05
   Grad. Scal. Fac. for Micro threshold ....   0.100
   Minimum threshold for Micro iter.    ....   1.000e-02
   NR start threshold (gradient norm)   ....   1.000e-04
   Initial trust radius                 ....   0.400
   Minimum AH scaling param. (alpha)    ....   1.000
   Maximum AH scaling param. (alpha)    .... 1000.000
   Quad. conv. algorithm                .... NR
   White noise on init. David. guess    .... on
   Maximum white noise                  ....   0.010
   Pseudo random numbers                .... off
   Inactive MOs                         .... canonical
   Orbital update algorithm             .... Taylor
   Preconditioner                       .... Diag
   Full preconditioner red. dimension   ....   250
 SOSCF                 CNVSOSCF           .... on
   Start iteration     SOSCFMaxIt         ....   150
   Startup grad/error  SOSCFStart         ....  0.003300
   Hessian update      SOSCFHessUp        .... L-BFGS
   Autom. constraints  SOSCFAutoConstrain .... off
 Level Shifting         CNVShift        .... on
   Level shift para.    LevelShift      ....    0.2500
   Turn off err/grad.   ShiftErr        ....    0.0010
 Zerner damping         CNVZerner       .... off
 Static damping         CNVDamp         .... on
   Fraction old density DampFac         ....    0.7000
   Max. Damping (<1)    DampMax         ....    0.9800
   Min. Damping (>=0)   DampMin         ....    0.0000
   Turn off err/grad.   DampErr         ....    0.1000

SCF Procedure:
 Maximum # iterations   MaxIter         ....   300
 SCF integral mode      SCFMode         .... Direct
   Integral package                     .... SHARK and LIBINT hybrid scheme
 Reset frequency        DirectResetFreq ....    20
 Integral Threshold     Thresh          ....  1.000e-12 Eh
 Primitive CutOff       TCut            ....  1.000e-13 Eh

Convergence Tolerance:
 Convergence Check Mode ConvCheckMode   .... Total+1el-Energy
 Convergence forced     ConvForced      .... 1
 Energy Change          TolE            ....  1.000e-08 Eh
 1-El. energy change                    ....  1.000e-05 Eh
 Orbital Gradient       TolG            ....  1.000e-05
 Orbital Rotation angle TolX            ....  1.000e-05
 DIIS Error             TolErr          ....  5.000e-07

------------------------------
INITIAL GUESS: MODEL POTENTIAL
------------------------------
Loading Hartree-Fock densities                     ... done
Calculating cut-offs                               ... done
Initializing the effective Hamiltonian             ... done
Setting up the integral package (SHARK)            ... done
Starting the Coulomb interaction                   ... done (   0.9 sec)
Making the grid                                    ... done (   1.1 sec)
Mapping shells                                     ... done
Starting the XC term evaluation                    ... done (   1.1 sec)
  promolecular density results
     # of electrons  =    165.984366647
     EX              =   -134.071748797
     EC              =     -5.606938767
     EX+EC           =   -139.678687564
Transforming the Hamiltonian                       ... done (   0.0 sec)
Diagonalizing the Hamiltonian                      ... done (   0.0 sec)
Back transforming the eigenvectors                 ... done (   0.0 sec)
Now organizing SCF variables                       ... done
                      ------------------
                      INITIAL GUESS DONE (   3.4 sec)
                      ------------------
             **** ENERGY FILE WAS UPDATED (td.en.tmp) ****
Finished Guess after   3.7 sec
Maximum memory used throughout the entire GUESS-calculation: 30.1 MB


           ************************************************************
           *        Program running with 4 parallel MPI-processes     *
           *              working on a common directory               *
           ************************************************************

-------------------------------------------------------------------------------------------
                                      ORCA LEAN-SCF
                              memory conserving SCF solver
-------------------------------------------------------------------------------------------

--------------------
CPCM SOLVATION MODEL
--------------------
CPCM parameters:
  Epsilon                                         ...      25.4510
  Refrac                                          ...       1.3611
  Rsolv                                           ...       1.3000
  Surface type                                    ... GAUSSIAN VDW
  Discretization scheme                           ... Constant charge density
    Threshold for H atoms                         ...       5.0000 (charges/Ang^2)
    Threshold for non-H atoms                     ...       5.0000 (charges/Ang^2)
  Epsilon function type                           ...         CPCM
Solvent:                                          ... ETHANOL
Radii:
  Scheme                                          ... Element-dependent radii
  Radius for C  used is    3.8550 Bohr (=   2.0400 Ang.)
  Radius for O  used is    3.4469 Bohr (=   1.8240 Ang.)
  Radius for H  used is    2.4944 Bohr (=   1.3200 Ang.)
Calculating surface                               ...        done! (  0.0s)
Cavity surface points                             ...         3756
Cavity Volume                                     ...    2613.7387
Cavity Surface-area                               ...    1340.1927
Calculating surface distance matrix               ...        done! (  0.2s)
Performing Cholesky decomposition & store         ...        done! (  0.7s)
Overall time for CPCM initialization              ...                 0.9s

----------------------------------------D-I-I-S--------------------------------------------
Iteration    Energy (Eh)           Delta-E    RMSDP     MaxDP     DIISErr   Damp  Time(sec)
-------------------------------------------------------------------------------------------
               ***  Starting incremental Fock matrix formation  ***
    1    -999.9170013057146207     0.00e+00  1.23e-01  5.16e+00  2.44e-01  0.700  31.5
    2    -1000.1698979431521366    -2.53e-01  1.31e-01  5.89e+00  1.01e-01  0.700  15.5
                               ***Turning on AO-DIIS***
    3    -1000.2773880138256573    -1.07e-01  4.09e-02  1.68e+00  4.16e-02  0.700  15.5
    4    -1000.3401463877880815    -6.28e-02  1.00e-01  6.55e+00  2.23e-02  0.000  15.7
    5    -1000.4750087802649432    -1.35e-01  3.91e-02  1.61e+00  5.43e-03  0.000  17.5
                              *** Initializing SOSCF ***
---------------------------------------S-O-S-C-F--------------------------------------
Iteration    Energy (Eh)           Delta-E    RMSDP     MaxDP     MaxGrad    Time(sec)
--------------------------------------------------------------------------------------
    6    -1000.4756269980762227    -6.18e-04  1.52e-02  6.54e-01  1.21e-03    14.4
               *** Restarting incremental Fock matrix formation ***
    7    -1000.4756082672060984     1.87e-05  1.90e-02  7.32e-01  2.85e-04    28.8
    8    -1000.4756127414061666    -4.47e-06  5.69e-03  2.32e-01  1.75e-04    25.8
    9    -1000.4756151319720630    -2.39e-06  4.48e-03  1.69e-01  9.67e-05    21.9
   10    -1000.4756155768945973    -4.45e-07  1.76e-03  6.98e-02  4.85e-05    21.9
   11    -1000.4756157702304336    -1.93e-07  1.35e-03  5.51e-02  2.22e-05    21.2
   12    -1000.4756157961442113    -2.59e-08  8.44e-04  5.08e-02  1.32e-05    19.2
   13    -1000.4756158008472084    -4.70e-09  1.11e-03  3.83e-02  5.45e-06    18.2
                 **** Energy Check signals convergence ****

               *****************************************************
               *                     SUCCESS                       *
               *           SCF CONVERGED AFTER  13 CYCLES          *
               *****************************************************

Recomputing exchange energy using gridx3       ... done (   45.188 sec)
Old exchange energy                            :    -27.275060046 Eh
New exchange energy                            :    -27.275172942 Eh
Exchange energy change after final integration :     -0.000112895 Eh
Total energy after final integration           :  -1000.475728713 Eh
             **** ENERGY FILE WAS UPDATED (td.en.tmp) ****

----------------
TOTAL SCF ENERGY
----------------

Total Energy       :      -1000.47572871344846 Eh          -27224.32864 eV

Components:
Nuclear Repulsion  :       1742.62091714294502 Eh           47419.12590 eV
Electronic Energy  :      -2743.07711727665583 Eh          -74642.92313 eV
One Electron Energy:      -4818.78038111199294 Eh         -131125.68047 eV
Two Electron Energy:       2075.70326383533711 Eh           56482.75734 eV
CPCM Dielectric    :         -0.01941568431194 Eh              -0.52833 eV

Virial components:
Potential Energy   :      -1995.70178867481900 Eh          -54305.80652 eV
Kinetic Energy     :        995.22605996137054 Eh           27081.47789 eV
Virial Ratio       :          2.00527485057242

DFT components:
N(Alpha)           :       83.000017267578 electrons
N(Beta)            :       83.000017267578 electrons
N(Total)           :      166.000034535156 electrons
E(X)               :     -108.295708455918 Eh       
E(C)               :       -6.604052761008 Eh       
E(XC)              :     -114.899761216925 Eh       

CPCM Solvation Model Properties:
Surface-charge          :         -0.04451076739809
Corrected charge        :          0.00000000000000
Outlying charge corr.   :          0.00009341502281 Eh               0.00254 eV
Free-energy (cav+disp)  :  This term is not implemented in the current solvation scheme

---------------
SCF CONVERGENCE
---------------

  Last Energy change         ...    4.7030e-09  Tolerance :   1.0000e-08
  Last MAX-Density change    ...    3.8345e-02  Tolerance :   1.0000e-07
  Last RMS-Density change    ...    1.1059e-03  Tolerance :   5.0000e-09
  Last DIIS Error            ...    1.2097e-03  Tolerance :   5.0000e-07
  Last Orbital Gradient      ...    5.4489e-06  Tolerance :   1.0000e-05
  Last Orbital Rotation      ...    2.0171e-05  Tolerance :   1.0000e-05


----------------
ORBITAL ENERGIES
----------------

  NO   OCC          E(Eh)            E(eV) 
   0   2.0000     -19.190258      -522.1935 
   1   2.0000     -19.187573      -522.1204 
   2   2.0000     -19.141673      -520.8714 
   3   2.0000     -10.277977      -279.6780 
   4   2.0000     -10.273276      -279.5501 
   5   2.0000     -10.259235      -279.1680 
   6   2.0000     -10.226823      -278.2860 
   7   2.0000     -10.199728      -277.5487 
   8   2.0000     -10.197726      -277.4942 
   9   2.0000     -10.196283      -277.4550 
  10   2.0000     -10.195319      -277.4287 
  11   2.0000     -10.193730      -277.3855 
  12   2.0000     -10.192782      -277.3597 
  13   2.0000     -10.190660      -277.3020 
  14   2.0000     -10.190182      -277.2890 
  15   2.0000     -10.188743      -277.2498 
  16   2.0000     -10.186894      -277.1995 
  17   2.0000     -10.182612      -277.0830 
  18   2.0000     -10.182122      -277.0696 
  19   2.0000     -10.175975      -276.9023 
  20   2.0000     -10.159374      -276.4506 
  21   2.0000     -10.159295      -276.4485 
  22   2.0000     -10.157911      -276.4108 
  23   2.0000      -1.088400       -29.6169 
  24   2.0000      -1.082103       -29.4455 
  25   2.0000      -1.037139       -28.2220 
  26   2.0000      -0.874183       -23.7877 
  27   2.0000      -0.872790       -23.7498 
  28   2.0000      -0.823405       -22.4060 
  29   2.0000      -0.801327       -21.8052 
  30   2.0000      -0.770978       -20.9794 
  31   2.0000      -0.762585       -20.7510 
  32   2.0000      -0.753987       -20.5170 
  33   2.0000      -0.743129       -20.2216 
  34   2.0000      -0.711703       -19.3664 
  35   2.0000      -0.684352       -18.6222 
  36   2.0000      -0.684060       -18.6142 
  37   2.0000      -0.658385       -17.9156 
  38   2.0000      -0.637284       -17.3414 
  39   2.0000      -0.623887       -16.9768 
  40   2.0000      -0.607754       -16.5378 
  41   2.0000      -0.586294       -15.9539 
  42   2.0000      -0.577050       -15.7023 
  43   2.0000      -0.552109       -15.0237 
  44   2.0000      -0.546321       -14.8662 
  45   2.0000      -0.521640       -14.1945 
  46   2.0000      -0.502806       -13.6820 
  47   2.0000      -0.488283       -13.2869 
  48   2.0000      -0.485880       -13.2215 
  49   2.0000      -0.474605       -12.9146 
  50   2.0000      -0.473797       -12.8927 
  51   2.0000      -0.456727       -12.4282 
  52   2.0000      -0.453541       -12.3415 
  53   2.0000      -0.449481       -12.2310 
  54   2.0000      -0.441470       -12.0130 
  55   2.0000      -0.438612       -11.9352 
  56   2.0000      -0.436654       -11.8820 
  57   2.0000      -0.432370       -11.7654 
  58   2.0000      -0.425359       -11.5746 
  59   2.0000      -0.419494       -11.4150 
  60   2.0000      -0.418019       -11.3749 
  61   2.0000      -0.402389       -10.9496 
  62   2.0000      -0.394957       -10.7473 
  63   2.0000      -0.394006       -10.7214 
  64   2.0000      -0.389926       -10.6104 
  65   2.0000      -0.384352       -10.4588 
  66   2.0000      -0.377744       -10.2789 
  67   2.0000      -0.373841       -10.1727 
  68   2.0000      -0.363452        -9.8900 
  69   2.0000      -0.362680        -9.8690 
  70   2.0000      -0.358046        -9.7429 
  71   2.0000      -0.351407        -9.5623 
  72   2.0000      -0.334685        -9.1072 
  73   2.0000      -0.333142        -9.0653 
  74   2.0000      -0.328554        -8.9404 
  75   2.0000      -0.325078        -8.8458 
  76   2.0000      -0.314144        -8.5483 
  77   2.0000      -0.271877        -7.3981 
  78   2.0000      -0.267783        -7.2868 
  79   2.0000      -0.263273        -7.1640 
  80   2.0000      -0.259037        -7.0488 
  81   2.0000      -0.249807        -6.7976 
  82   2.0000      -0.223165        -6.0726 
  83   0.0000      -0.076971        -2.0945 
  84   0.0000      -0.025052        -0.6817 
  85   0.0000      -0.017401        -0.4735 
  86   0.0000      -0.010410        -0.2833 
  87   0.0000       0.004744         0.1291 
  88   0.0000       0.012304         0.3348 
  89   0.0000       0.020399         0.5551 
  90   0.0000       0.024111         0.6561 
  91   0.0000       0.025083         0.6825 
  92   0.0000       0.029580         0.8049 
  93   0.0000       0.034426         0.9368 
*Only the first 10 virtual orbitals were printed.

                    ********************************
                    * MULLIKEN POPULATION ANALYSIS *
                    ********************************

-----------------------
MULLIKEN ATOMIC CHARGES
-----------------------
   0 C :   -0.362799
   1 O :   -0.414668
   2 C :    0.136728
   3 C :    0.532541
   4 C :   -0.752746
   5 C :    2.004306
   6 C :   -0.308011
   7 C :   -0.815015
   8 C :   -1.505643
   9 O :   -0.666414
  10 C :    0.222224
  11 C :   -1.770292
  12 O :   -0.620496
  13 C :    1.849595
  14 C :   -0.253295
  15 C :   -1.436615
  16 C :   -0.048798
  17 C :    0.743309
  18 C :   -0.682821
  19 C :   -0.661152
  20 C :   -0.580533
  21 C :    0.100067
  22 C :    0.111430
  23 H :    0.224386
  24 H :    0.226163
  25 H :    0.225098
  26 H :    0.216891
  27 H :    0.222709
  28 H :    0.218079
  29 H :    0.215588
  30 H :    0.569257
  31 H :    0.212887
  32 H :    0.208607
  33 H :    0.201874
  34 H :    0.220379
  35 H :    0.226735
  36 H :    0.224935
  37 H :    0.220482
  38 H :    0.225196
  39 H :    0.226289
  40 H :    0.226421
  41 H :    0.221514
  42 H :    0.226585
  43 H :    0.205892
  44 H :    0.213133
Sum of atomic charges:    0.0000000

--------------------------------
MULLIKEN REDUCED ORBITAL CHARGES
--------------------------------
  0 C s       :     3.363858  s :     3.363858
      pz      :     1.039086  p :     2.939481
      px      :     0.787906
      py      :     1.112489
      dz2     :     0.013659  d :     0.059460
      dxz     :     0.012060
      dyz     :     0.008268
      dx2y2   :     0.008704
      dxy     :     0.016770

  1 O s       :     3.864514  s :     3.864514
      pz      :     1.694504  p :     4.520441
      px      :     1.244522
      py      :     1.581415
      dz2     :     0.004071  d :     0.029712
      dxz     :     0.005530
      dyz     :     0.004335
      dx2y2   :     0.005583
      dxy     :     0.010193

  2 C s       :     3.229512  s :     3.229512
      pz      :     0.946229  p :     2.560715
      px      :     0.640050
      py      :     0.974436
      dz2     :     0.007542  d :     0.073045
      dxz     :     0.012337
      dyz     :     0.011333
      dx2y2   :     0.019581
      dxy     :     0.022251

  3 C s       :     2.248801  s :     2.248801
      pz      :     1.080481  p :     3.183408
      px      :     1.144542
      py      :     0.958385
      dz2     :     0.003065  d :     0.035251
      dxz     :     0.005844
      dyz     :     0.005945
      dx2y2   :     0.010885
      dxy     :     0.009511

  4 C s       :     3.780712  s :     3.780712
      pz      :     0.928213  p :     2.934103
      px      :     0.970853
      py      :     1.035038
      dz2     :     0.004273  d :     0.037930
      dxz     :     0.007162
      dyz     :     0.004705
      dx2y2   :     0.012789
      dxy     :     0.009002

  5 C s       :     1.572023  s :     1.572023
      pz      :     0.980150  p :     2.383930
      px      :     0.640550
      py      :     0.763231
      dz2     :     0.005019  d :     0.039741
      dxz     :     0.005700
      dyz     :     0.006220
      dx2y2   :     0.010204
      dxy     :     0.012597

  6 C s       :     3.130391  s :     3.130391
      pz      :     0.979464  p :     3.139642
      px      :     1.169476
      py      :     0.990702
      dz2     :     0.002967  d :     0.037978
      dxz     :     0.006604
      dyz     :     0.007069
      dx2y2   :     0.010836
      dxy     :     0.010503

  7 C s       :     3.707573  s :     3.707573
      pz      :     1.011441  p :     3.072469
      px      :     1.050788
      py      :     1.010240
      dz2     :     0.003903  d :     0.034973
      dxz     :     0.006451
      dyz     :     0.004463
      dx2y2   :     0.011628
      dxy     :     0.008529

  8 C s       :     4.048808  s :     4.048808
      pz      :     0.903072  p :     3.378992
      px      :     1.684373
      py      :     0.791547
      dz2     :     0.005025  d :     0.077843
      dxz     :     0.009560
      dyz     :     0.016173
      dx2y2   :     0.024077
      dxy     :     0.023009

  9 O s       :     3.954940  s :     3.954940
      pz      :     1.760387  p :     4.683135
      px      :     1.616916
      py      :     1.305832
      dz2     :     0.003991  d :     0.028339
      dxz     :     0.001774
      dyz     :     0.004681
      dx2y2   :     0.008915
      dxy     :     0.008978

 10 C s       :     2.013322  s :     2.013322
      pz      :     1.180801  p :     3.734050
      px      :     1.418163
      py      :     1.135086
      dz2     :     0.003537  d :     0.030405
      dxz     :     0.003564
      dyz     :     0.002030
      dx2y2   :     0.011551
      dxy     :     0.009724

 11 C s       :     4.312544  s :     4.312544
      pz      :     0.743003  p :     3.367751
      px      :     1.713500
      py      :     0.911248
      dz2     :     0.005008  d :     0.089997
      dxz     :     0.006682
      dyz     :     0.018952
      dx2y2   :     0.024025
      dxy     :     0.035331

 12 O s       :     3.965758  s :     3.965758
      pz      :     1.524778  p :     4.630833
      px      :     1.813524
      py      :     1.292532
      dz2     :     0.002242  d :     0.023905
      dxz     :     0.000155
      dyz     :     0.008399
      dx2y2   :     0.007335
      dxy     :     0.005773

 13 C s       :     1.419498  s :     1.419498
      pz      :     1.080927  p :     2.691465
      px      :     0.861053
      py      :     0.749484
      dz2     :     0.004579  d :     0.039442
      dxz     :     0.004992
      dyz     :     0.005774
      dx2y2   :     0.011665
      dxy     :     0.012433

 14 C s       :     2.705063  s :     2.705063
      pz      :     0.995717  p :     3.510562
      px      :     1.416593
      py      :     1.098251
      dz2     :     0.003280  d :     0.037670
      dxz     :     0.006126
      dyz     :     0.005702
      dx2y2   :     0.010096
      dxy     :     0.012466

 15 C s       :     3.979925  s :     3.979925
      pz      :     1.001356  p :     3.419798
      px      :     1.286776
      py      :     1.131667
      dz2     :     0.003256  d :     0.036892
      dxz     :     0.006553
      dyz     :     0.004399
      dx2y2   :     0.012891
      dxy     :     0.009792

 16 C s       :     3.070839  s :     3.070839
      pz      :     0.950805  p :     2.935906
      px      :     1.196491
      py      :     0.788610
      dz2     :     0.004373  d :     0.042053
      dxz     :     0.007146
      dyz     :     0.005827
      dx2y2   :     0.012601
      dxy     :     0.012105

 17 C s       :     2.560061  s :     2.560061
      pz      :     0.921380  p :     2.646626
      px      :     0.866172
      py      :     0.859074
      dz2     :     0.011500  d :     0.050004
      dxz     :     0.008718
      dyz     :     0.009160
      dx2y2   :     0.011101
      dxy     :     0.009525

 18 C s       :     3.540859  s :     3.540859
      pz      :     0.923912  p :     3.106685
      px      :     1.082905
      py      :     1.099868
      dz2     :     0.007322  d :     0.035277
      dxz     :     0.006298
      dyz     :     0.008086
      dx2y2   :     0.008084
      dxy     :     0.005488

 19 C s       :     3.522982  s :     3.522982
      pz      :     1.034043  p :     3.102897
      px      :     1.036758
      py      :     1.032096
      dz2     :     0.010770  d :     0.035274
      dxz     :     0.004767
      dyz     :     0.004350
      dx2y2   :     0.010458
      dxy     :     0.004929

 20 C s       :     3.459353  s :     3.459353
      pz      :     1.070900  p :     3.086029
      px      :     1.110543
      py      :     0.904586
      dz2     :     0.009571  d :     0.035151
      dxz     :     0.004390
      dyz     :     0.006316
      dx2y2   :     0.007423
      dxy     :     0.007452

 21 C s       :     2.998682  s :     2.998682
      pz      :     1.024926  p :     2.864350
      px      :     0.902823
      py      :     0.936601
      dz2     :     0.003275  d :     0.036902
      dxz     :     0.005572
      dyz     :     0.005137
      dx2y2   :     0.009906
      dxy     :     0.013012

 22 C s       :     3.120621  s :     3.120621
      pz      :     0.927517  p :     2.730437
      px      :     0.822532
      py      :     0.980387
      dz2     :     0.003270  d :     0.037512
      dxz     :     0.007208
      dyz     :     0.004051
      dx2y2   :     0.012550
      dxy     :     0.010433

 23 H s       :     0.775614  s :     0.775614

 24 H s       :     0.773837  s :     0.773837

 25 H s       :     0.774902  s :     0.774902

 26 H s       :     0.783109  s :     0.783109

 27 H s       :     0.777291  s :     0.777291

 28 H s       :     0.781921  s :     0.781921

 29 H s       :     0.784412  s :     0.784412

 30 H s       :     0.430743  s :     0.430743

 31 H s       :     0.787113  s :     0.787113

 32 H s       :     0.791393  s :     0.791393

 33 H s       :     0.798126  s :     0.798126

 34 H s       :     0.779621  s :     0.779621

 35 H s       :     0.773265  s :     0.773265

 36 H s       :     0.775065  s :     0.775065

 37 H s       :     0.779518  s :     0.779518

 38 H s       :     0.774804  s :     0.774804

 39 H s       :     0.773711  s :     0.773711

 40 H s       :     0.773579  s :     0.773579

 41 H s       :     0.778486  s :     0.778486

 42 H s       :     0.773415  s :     0.773415

 43 H s       :     0.794108  s :     0.794108

 44 H s       :     0.786867  s :     0.786867



                     *******************************
                     * LOEWDIN POPULATION ANALYSIS *
                     *******************************

----------------------
LOEWDIN ATOMIC CHARGES
----------------------
   0 C :   -0.254680
   1 O :   -0.395569
   2 C :    0.049936
   3 C :   -0.222069
   4 C :   -0.141327
   5 C :   -0.121980
   6 C :   -0.156719
   7 C :   -0.183262
   8 C :    0.123474
   9 O :   -0.439835
  10 C :   -0.289280
  11 C :    0.128263
  12 O :   -0.456129
  13 C :   -0.117617
  14 C :   -0.165491
  15 C :   -0.200426
  16 C :   -0.113861
  17 C :   -0.254481
  18 C :   -0.485860
  19 C :   -0.485456
  20 C :   -0.500622
  21 C :   -0.200080
  22 C :   -0.150661
  23 H :    0.209807
  24 H :    0.206950
  25 H :    0.207235
  26 H :    0.235461
  27 H :    0.240293
  28 H :    0.234255
  29 H :    0.236226
  30 H :    0.443691
  31 H :    0.243694
  32 H :    0.229773
  33 H :    0.229511
  34 H :    0.202742
  35 H :    0.208579
  36 H :    0.205473
  37 H :    0.202831
  38 H :    0.205561
  39 H :    0.208471
  40 H :    0.206098
  41 H :    0.204342
  42 H :    0.206366
  43 H :    0.230326
  44 H :    0.236049

-------------------------------
LOEWDIN REDUCED ORBITAL CHARGES
-------------------------------
  0 C s       :     2.957173  s :     2.957173
      pz      :     1.099436  p :     3.178765
      px      :     0.929193
      py      :     1.150136
      dz2     :     0.026406  d :     0.118742
      dxz     :     0.024544
      dyz     :     0.015877
      dx2y2   :     0.016840
      dxy     :     0.035075

  1 O s       :     3.482629  s :     3.482629
      pz      :     1.750495  p :     4.841736
      px      :     1.413811
      py      :     1.677430
      dz2     :     0.009185  d :     0.071203
      dxz     :     0.014556
      dyz     :     0.007347
      dx2y2   :     0.015736
      dxy     :     0.024380

  2 C s       :     2.809011  s :     2.809011
      pz      :     0.959094  p :     2.967090
      px      :     0.964543
      py      :     1.043454
      dz2     :     0.017308  d :     0.173962
      dxz     :     0.027065
      dyz     :     0.025009
      dx2y2   :     0.048186
      dxy     :     0.056394

  3 C s       :     2.882774  s :     2.882774
      pz      :     1.059450  p :     3.254627
      px      :     1.118591
      py      :     1.076586
      dz2     :     0.006716  d :     0.084668
      dxz     :     0.011406
      dyz     :     0.013378
      dx2y2   :     0.027994
      dxy     :     0.025173

  4 C s       :     2.886897  s :     2.886897
      pz      :     0.984220  p :     3.165070
      px      :     1.075325
      py      :     1.105525
      dz2     :     0.008897  d :     0.089359
      dxz     :     0.016886
      dyz     :     0.009000
      dx2y2   :     0.030726
      dxy     :     0.023851

  5 C s       :     2.831500  s :     2.831500
      pz      :     1.045086  p :     3.187768
      px      :     1.059606
      py      :     1.083077
      dz2     :     0.010848  d :     0.102711
      dxz     :     0.013451
      dyz     :     0.015171
      dx2y2   :     0.028674
      dxy     :     0.034568

  6 C s       :     2.886842  s :     2.886842
      pz      :     0.995216  p :     3.180577
      px      :     1.107126
      py      :     1.078234
      dz2     :     0.006693  d :     0.089300
      dxz     :     0.012947
      dyz     :     0.015347
      dx2y2   :     0.027264
      dxy     :     0.027049

  7 C s       :     2.888121  s :     2.888121
      pz      :     1.032274  p :     3.211239
      px      :     1.074091
      py      :     1.104874
      dz2     :     0.008063  d :     0.083902
      dxz     :     0.015772
      dyz     :     0.008640
      dx2y2   :     0.028196
      dxy     :     0.023231

  8 C s       :     2.811391  s :     2.811391
      pz      :     0.831953  p :     2.882631
      px      :     1.107445
      py      :     0.943233
      dz2     :     0.012660  d :     0.182504
      dxz     :     0.018568
      dyz     :     0.033076
      dx2y2   :     0.058574
      dxy     :     0.059626

  9 O s       :     3.525478  s :     3.525478
      pz      :     1.770766  p :     4.859128
      px      :     1.667254
      py      :     1.421108
      dz2     :     0.007083  d :     0.055229
      dxz     :     0.001898
      dyz     :     0.008683
      dx2y2   :     0.018913
      dxy     :     0.018653

 10 C s       :     2.874610  s :     2.874610
      pz      :     1.157935  p :     3.338136
      px      :     1.067822
      py      :     1.112379
      dz2     :     0.007821  d :     0.076535
      dxz     :     0.007437
      dyz     :     0.003199
      dx2y2   :     0.030291
      dxy     :     0.027787

 11 C s       :     2.810386  s :     2.810386
      pz      :     0.761235  p :     2.849187
      px      :     1.066960
      py      :     1.020992
      dz2     :     0.013210  d :     0.212164
      dxz     :     0.012458
      dyz     :     0.038090
      dx2y2   :     0.059052
      dxy     :     0.089354

 12 O s       :     3.561870  s :     3.561870
      pz      :     1.532393  p :     4.842046
      px      :     1.822677
      py      :     1.486975
      dz2     :     0.006232  d :     0.052213
      dxz     :     0.000223
      dyz     :     0.012105
      dx2y2   :     0.020000
      dxy     :     0.013653

 13 C s       :     2.842254  s :     2.842254
      pz      :     1.015779  p :     3.173405
      px      :     1.066618
      py      :     1.091008
      dz2     :     0.010293  d :     0.101958
      dxz     :     0.011016
      dyz     :     0.013920
      dx2y2   :     0.032327
      dxy     :     0.034403

 14 C s       :     2.887338  s :     2.887338
      pz      :     0.990402  p :     3.189102
      px      :     1.120526
      py      :     1.078174
      dz2     :     0.007165  d :     0.089051
      dxz     :     0.012513
      dyz     :     0.012095
      dx2y2   :     0.026145
      dxy     :     0.031133

 15 C s       :     2.883992  s :     2.883992
      pz      :     1.016595  p :     3.228525
      px      :     1.108634
      py      :     1.103297
      dz2     :     0.006989  d :     0.087909
      dxz     :     0.015015
      dyz     :     0.007942
      dx2y2   :     0.032275
      dxy     :     0.025688

 16 C s       :     2.857261  s :     2.857261
      pz      :     0.952622  p :     3.152483
      px      :     1.101331
      py      :     1.098530
      dz2     :     0.009443  d :     0.104118
      dxz     :     0.014904
      dyz     :     0.014022
      dx2y2   :     0.033486
      dxy     :     0.032263

 17 C s       :     2.864553  s :     2.864553
      pz      :     1.101659  p :     3.273396
      px      :     1.071459
      py      :     1.100279
      dz2     :     0.027366  d :     0.116532
      dxz     :     0.020022
      dyz     :     0.020790
      dx2y2   :     0.026551
      dxy     :     0.021803

 18 C s       :     2.987446  s :     2.987446
      pz      :     1.103309  p :     3.429921
      px      :     1.154202
      py      :     1.172411
      dz2     :     0.015973  d :     0.068492
      dxz     :     0.012840
      dyz     :     0.015205
      dx2y2   :     0.014707
      dxy     :     0.009766

 19 C s       :     2.987228  s :     2.987228
      pz      :     1.147029  p :     3.429718
      px      :     1.135279
      py      :     1.147409
      dz2     :     0.020023  d :     0.068510
      dxz     :     0.009758
      dyz     :     0.009076
      dx2y2   :     0.019496
      dxy     :     0.010156

 20 C s       :     2.986754  s :     2.986754
      pz      :     1.162179  p :     3.445591
      px      :     1.178219
      py      :     1.105193
      dz2     :     0.017884  d :     0.068278
      dxz     :     0.007795
      dyz     :     0.012817
      dx2y2   :     0.015573
      dxy     :     0.014208

 21 C s       :     2.883952  s :     2.883952
      pz      :     1.009864  p :     3.228023
      px      :     1.125213
      py      :     1.092946
      dz2     :     0.006962  d :     0.088105
      dxz     :     0.011322
      dyz     :     0.011011
      dx2y2   :     0.026153
      dxy     :     0.032656

 22 C s       :     2.887254  s :     2.887254
      pz      :     0.980522  p :     3.174671
      px      :     1.096739
      py      :     1.097411
      dz2     :     0.007003  d :     0.088736
      dxz     :     0.016115
      dyz     :     0.007188
      dx2y2   :     0.031341
      dxy     :     0.027089

 23 H s       :     0.790193  s :     0.790193

 24 H s       :     0.793050  s :     0.793050

 25 H s       :     0.792765  s :     0.792765

 26 H s       :     0.764539  s :     0.764539

 27 H s       :     0.759707  s :     0.759707

 28 H s       :     0.765745  s :     0.765745

 29 H s       :     0.763774  s :     0.763774

 30 H s       :     0.556309  s :     0.556309

 31 H s       :     0.756306  s :     0.756306

 32 H s       :     0.770227  s :     0.770227

 33 H s       :     0.770489  s :     0.770489

 34 H s       :     0.797258  s :     0.797258

 35 H s       :     0.791421  s :     0.791421

 36 H s       :     0.794527  s :     0.794527

 37 H s       :     0.797169  s :     0.797169

 38 H s       :     0.794439  s :     0.794439

 39 H s       :     0.791529  s :     0.791529

 40 H s       :     0.793902  s :     0.793902

 41 H s       :     0.795658  s :     0.795658

 42 H s       :     0.793634  s :     0.793634

 43 H s       :     0.769674  s :     0.769674

 44 H s       :     0.763951  s :     0.763951



                      *****************************
                      * MAYER POPULATION ANALYSIS *
                      *****************************

  NA   - Mulliken gross atomic population
  ZA   - Total nuclear charge
  QA   - Mulliken gross atomic charge
  VA   - Mayer's total valence
  BVA  - Mayer's bonded valence
  FA   - Mayer's free valence

  ATOM       NA         ZA         QA         VA         BVA        FA
  0 C      6.3628     6.0000    -0.3628     3.5007     3.5007    -0.0000
  1 O      8.4147     8.0000    -0.4147     1.6080     1.6080    -0.0000
  2 C      5.8633     6.0000     0.1367     3.6388     3.6388     0.0000
  3 C      5.4675     6.0000     0.5325     2.7368     2.7368    -0.0000
  4 C      6.7527     6.0000    -0.7527     3.8450     3.8450    -0.0000
  5 C      3.9957     6.0000     2.0043    -2.9771    -2.9771    -0.0000
[...]
  0-1A  ->  6-1A    4.847028   39093.9   255.8   0.038486011   0.32409  -0.50717  -0.25850  -0.00700
  0-1A  ->  7-1A    5.009341   40403.1   247.5   0.099390159   0.80985  -0.54327  -0.71694  -0.02633
  0-1A  ->  8-1A    5.118590   41284.2   242.2   0.077347511   0.61679   0.66066  -0.29585   0.30463
  0-1A  ->  9-1A    5.277449   42565.5   234.9   0.003485862   0.02696  -0.11508  -0.09215  -0.07228
  0-1A  -> 10-1A    5.524144   44555.2   224.4   0.012949413   0.09568  -0.22702   0.08234  -0.19330
  0-1A  -> 11-1A    5.572163   44942.5   222.5   0.020598013   0.15088   0.33012  -0.18371  -0.09032
  0-1A  -> 12-1A    5.698703   45963.1   217.6   0.075854582   0.54331   0.72583  -0.07645   0.10310
  0-1A  -> 13-1A    5.778935   46610.3   214.5   0.018326613   0.12944  -0.10122   0.34450  -0.02272
  0-1A  -> 14-1A    5.789650   46696.7   214.1   0.016902838   0.11917   0.25117  -0.21846   0.09141
  0-1A  -> 15-1A    5.852025   47199.8   211.9   0.003393970   0.02367   0.09491  -0.10347  -0.06292
  0-1A  -> 16-1A    5.866142   47313.6   211.4   0.001946653   0.01354  -0.04716  -0.00860   0.10605
  0-1A  -> 17-1A    5.972014   48167.5   207.6   0.012161374   0.08312   0.18063  -0.17332  -0.14301
  0-1A  -> 18-1A    6.049389   48791.6   205.0   0.006188797   0.04176  -0.01984  -0.06887  -0.19137
  0-1A  -> 19-1A    6.073124   48983.1   204.2   0.005402768   0.03631   0.10953  -0.08071  -0.13342
  0-1A  -> 20-1A    6.100571   49204.4   203.2   0.002455668   0.01643   0.06532   0.06902   0.08602
  0-1A  -> 21-1A    6.151473   49615.0   201.6   0.001857433   0.01232   0.03950  -0.04279  -0.09452
  0-1A  -> 22-1A    6.159927   49683.2   201.3   0.013635347   0.09035   0.28263  -0.08694   0.05399

----------------------------------------------------------------------------------------------------
                     ABSORPTION SPECTRUM VIA TRANSITION VELOCITY DIPOLE MOMENTS    
----------------------------------------------------------------------------------------------------
     Transition      Energy     Energy  Wavelength fosc(P2)      P2        PX        PY        PZ   
                      (eV)      (cm-1)    (nm)                 (au**2)    (au)      (au)      (au)  
----------------------------------------------------------------------------------------------------
  0-1A  ->  1-1A    3.619419   29192.6   342.6   0.608698432   0.12145   0.34620   0.02423   0.03174
  0-1A  ->  2-1A    3.922231   31634.9   316.1   0.001262826   0.00027  -0.01526  -0.00625  -0.00104
  0-1A  ->  3-1A    4.346602   35057.7   285.2   0.053802295   0.01289  -0.11211   0.01793   0.00087
  0-1A  ->  4-1A    4.389113   35400.6   282.5   0.015766925   0.00381  -0.05959   0.01458  -0.00712
  0-1A  ->  5-1A    4.525930   36504.1   273.9   0.001485390   0.00037  -0.01654   0.00972   0.00155
  0-1A  ->  6-1A    4.847028   39093.9   255.8   0.011045711   0.00295   0.05258   0.01283   0.00472
  0-1A  ->  7-1A    5.009341   40403.1   247.5   0.031628604   0.00873   0.07518   0.04849   0.02703
  0-1A  ->  8-1A    5.118590   41284.2   242.2   0.011015846   0.00311  -0.04801  -0.02748  -0.00695
  0-1A  ->  9-1A    5.277449   42565.5   234.9   0.006512955   0.00189   0.02618   0.03446   0.00465
  0-1A  -> 10-1A    5.524144   44555.2   224.4   0.004961183   0.00151   0.03521   0.00519   0.01562
  0-1A  -> 11-1A    5.572163   44942.5   222.5   0.012029841   0.00370  -0.05929   0.00796   0.01080
  0-1A  -> 12-1A    5.698703   45963.1   217.6   0.056724765   0.01782  -0.13210   0.01377  -0.01337
  0-1A  -> 13-1A    5.778935   46610.3   214.5   0.001969650   0.00063   0.01596  -0.01924   0.00158
  0-1A  -> 14-1A    5.789650   46696.7   214.1   0.009372126   0.00299  -0.05167   0.01746   0.00408
  0-1A  -> 15-1A    5.852025   47199.8   211.9   0.001799569   0.00058  -0.01934   0.01057   0.00973
  0-1A  -> 16-1A    5.866142   47313.6   211.4   0.001195223   0.00039   0.00384  -0.00523  -0.01856
  0-1A  -> 17-1A    5.972014   48167.5   207.6   0.007641860   0.00252  -0.04791   0.01121   0.00972
  0-1A  -> 18-1A    6.049389   48791.6   205.0   0.005264505   0.00176   0.00287   0.01504   0.03900
  0-1A  -> 19-1A    6.073124   48983.1   204.2   0.002689582   0.00090  -0.01678   0.01127   0.02217
  0-1A  -> 20-1A    6.100571   49204.4   203.2   0.000646716   0.00022  -0.01004  -0.00137  -0.01071
  0-1A  -> 21-1A    6.151473   49615.0   201.6   0.001863988   0.00063  -0.01270   0.00881   0.01983
  0-1A  -> 22-1A    6.159927   49683.2   201.3   0.011257323   0.00382  -0.06069  -0.01153  -0.00253

------------------------------------------------------------------------------------------
                     CD SPECTRUM VIA TRANSITION ELECTRIC DIPOLE MOMENTS    
------------------------------------------------------------------------------------------
     Transition      Energy     Energy  Wavelength    R        MX        MY        MZ   
                      (eV)      (cm-1)    (nm)   (1e40*cgs)   (au)      (au)      (au)  
------------------------------------------------------------------------------------------
  0-1A  ->  1-1A    3.619419   29192.6   342.6   25.80294  -0.00307  -0.13706   0.40743
  0-1A  ->  2-1A    3.922231   31634.9   316.1   15.72543   0.00126  -0.19987  -0.02256
  0-1A  ->  3-1A    4.346602   35057.7   285.2  -30.00200   0.06270  -0.00888  -0.22887
  0-1A  ->  4-1A    4.389113   35400.6   282.5  -12.84071   0.04829  -0.00694   0.01002
  0-1A  ->  5-1A    4.525930   36504.1   273.9   10.19365  -0.04127   0.06006   0.13257
  0-1A  ->  6-1A    4.847028   39093.9   255.8    4.14664   0.01367   0.00646   0.02753
  0-1A  ->  7-1A    5.009341   40403.1   247.5  -24.78146  -0.02403  -0.05935   0.11547
  0-1A  ->  8-1A    5.118590   41284.2   242.2   -3.56647   0.02089   0.02977   0.00844
  0-1A  ->  9-1A    5.277449   42565.5   234.9   -1.71447  -0.03201  -0.03215   0.04165
  0-1A  -> 10-1A    5.524144   44555.2   224.4   24.28675   0.13334  -0.11139   0.06245
  0-1A  -> 11-1A    5.572163   44942.5   222.5    0.81496   0.03466   0.05122   0.04163
  0-1A  -> 12-1A    5.698703   45963.1   217.6   23.06466  -0.03706   0.12679  -0.11962
  0-1A  -> 13-1A    5.778935   46610.3   214.5    2.56515  -0.02753  -0.01274   0.16904
  0-1A  -> 14-1A    5.789650   46696.7   214.1   -9.54823   0.04284  -0.07295  -0.07049
  0-1A  -> 15-1A    5.852025   47199.8   211.9   -1.04646  -0.02479  -0.00476  -0.06485
  0-1A  -> 16-1A    5.866142   47313.6   211.4    9.23345   0.05312   0.27550  -0.13872
  0-1A  -> 17-1A    5.972014   48167.5   207.6  -22.58322   0.09668  -0.03603  -0.16916
  0-1A  -> 18-1A    6.049389   48791.6   205.0   -7.58117  -0.12550  -0.04999  -0.05303
  0-1A  -> 19-1A    6.073124   48983.1   204.2    7.88028  -0.06892   0.00367   0.06648
  0-1A  -> 20-1A    6.100571   49204.4   203.2    2.04875  -0.06117  -0.08037   0.06041
  0-1A  -> 21-1A    6.151473   49615.0   201.6   -3.73885   0.05855  -0.10088  -0.01376
  0-1A  -> 22-1A    6.159927   49683.2   201.3    7.08336  -0.01724  -0.02774  -0.23270

------------------------------------------------------------------------------------------
                     CD SPECTRUM VIA TRANSITION VELOCITY DIPOLE MOMENTS    
------------------------------------------------------------------------------------------
     Transition      Energy     Energy  Wavelength    R        MX        MY        MZ   
                      (eV)      (cm-1)    (nm)   (1e40*cgs)   (au)      (au)      (au)  
------------------------------------------------------------------------------------------
  0-1A  ->  1-1A    3.619419   29192.6   342.6   30.29976  -0.00307  -0.13706   0.40743
  0-1A  ->  2-1A    3.922231   31634.9   316.1    4.09708   0.00126  -0.19987  -0.02256
  0-1A  ->  3-1A    4.346602   35057.7   285.2  -21.80327   0.06270  -0.00888  -0.22887
  0-1A  ->  4-1A    4.389113   35400.6   282.5   -8.91515   0.04829  -0.00694   0.01002
  0-1A  ->  5-1A    4.525930   36504.1   273.9    4.17384  -0.04127   0.06006   0.13257
  0-1A  ->  6-1A    4.847028   39093.9   255.8    2.46548   0.01367   0.00646   0.02753
  0-1A  ->  7-1A    5.009341   40403.1   247.5   -4.00266  -0.02403  -0.05935   0.11547
  0-1A  ->  8-1A    5.118590   41284.2   242.2   -4.71091   0.02089   0.02977   0.00844
  0-1A  ->  9-1A    5.277449   42565.5   234.9   -4.25969  -0.03201  -0.03215   0.04165
  0-1A  -> 10-1A    5.524144   44555.2   224.4   11.82668   0.13334  -0.11139   0.06245
  0-1A  -> 11-1A    5.572163   44942.5   222.5   -2.75671   0.03466   0.05122   0.04163
  0-1A  -> 12-1A    5.698703   45963.1   217.6   18.54987  -0.03706   0.12679  -0.11962
  0-1A  -> 13-1A    5.778935   46610.3   214.5    0.16293  -0.02753  -0.01274   0.16904
  0-1A  -> 14-1A    5.789650   46696.7   214.1   -8.36386   0.04284  -0.07295  -0.07049
  0-1A  -> 15-1A    5.852025   47199.8   211.9   -0.44303  -0.02479  -0.00476  -0.06485
  0-1A  -> 16-1A    5.866142   47313.6   211.4    2.92716   0.05312   0.27550  -0.13872
  0-1A  -> 17-1A    5.972014   48167.5   207.6  -14.35031   0.09668  -0.03603  -0.16916
  0-1A  -> 18-1A    6.049389   48791.6   205.0   -6.74341  -0.12550  -0.04999  -0.05303
  0-1A  -> 19-1A    6.073124   48983.1   204.2    5.64457  -0.06892   0.00367   0.06648
  0-1A  -> 20-1A    6.100571   49204.4   203.2    0.16273  -0.06117  -0.08037   0.06041
  0-1A  -> 21-1A    6.151473   49615.0   201.6   -3.97294   0.05855  -0.10088  -0.01376
  0-1A  -> 22-1A    6.159927   49683.2   201.3    4.07000  -0.01724  -0.02774  -0.23270

Total run time:      586.384 sec

           *** ORCA-CIS/TD-DFT FINISHED WITHOUT ERROR ***
-----------------------
CIS/TD-DFT TOTAL ENERGY
-----------------------

    E(SCF)  =  -1000.475728713 Eh
    DE(CIS) =      0.133011200 Eh (Root  1)
    ----------------------------- ---------
    E(tot)  =  -1000.342717514 Eh


Maximum memory used throughout the entire CIS-calculation: 881.7 MB
=> NOW LEAVING ORCA_CIS

-------------------------   --------------------
FINAL SINGLE POINT ENERGY     -1000.342717513856
-------------------------   --------------------



           ************************************************************
           *        Program running with 4 parallel MPI-processes     *
           *              working on a common directory               *
           ************************************************************

------------------------------------------------------------------------------
                              ORCA PROPERTY CALCULATIONS
------------------------------------------------------------------------------

GBWName                                 ... td.gbw
Number of atoms                         ...     45
Number of basis functions               ...    458
Max core memory                         ...   2500 MB

Electric properties:
Dipole moment                           ... YES
Quadrupole moment                       ...  NO
Static polarizability (Dipole/Dipole)   ...  NO
Static polarizability (Dipole/Quad.)    ...  NO
Static polarizability (Quad./Quad.)     ...  NO
Static polarizability (Velocity)        ...  NO
Static hyperpolarizability              ...  NO

Atomic electric properties:
Dipole moment                           ...  NO
Quadrupole moment                       ...  NO
Static polarizability                   ...  NO

Choice of electric origin               ... Center of mass
Position of electric origin             ...     1.201272    -0.502435     0.008214

General magnetic properties:
Magnetizability                         ...  NO

EPR properties:
g-Tensor (aka g-matrix)                 ...  NO
Zero-Field splitting spin-orbit         ...  NO
Zero-field splitting spin-spin          ...  NO
Hyperfine couplings                     ...  NO (   0 nuclei)
Quadrupole couplings                    ...  NO (   0 nuclei)
Contact density                         ...  NO (   0 nuclei)

NMR properties:
Chemical shifts                         ...  NO (   0 nuclei)
Spin-rotation constants                 ...  NO (   0 nuclei)
Spin-spin couplings                     ...  NO (   0 nuclei,    0 pairs)

Choice of magnetic origin               ... GIAO
Position of magnetic origin             ...     0.000000     0.000000     0.000000

Properties with geometric perturbations:
SCF Hessian                             ...  NO
IR spectrum                             ...  NO
VCD spectrum                            ...  NO
X-ray spectroscopy properties:
SCF XES/XAS/RIXS spectra                ...  NO

SCF SOC stabilization energy            ...  NO
Diagonal Born-Oppenheimer correction    ...  NO

-------------
DIPOLE MOMENT
-------------

Method             : SCF
Type of density    : Electron Density
Multiplicity       :   1
Irrep              :   0
Energy             : -1000.4757287134484613 Eh
Basis              : AO
                                X                 Y                 Z
Electronic contribution:     26.960456771      -9.324074625      -0.736476381
Nuclear contribution   :    -26.387387470      11.151247929       1.278706032
                        -----------------------------------------
Total Dipole Moment    :      0.573069300       1.827173303       0.542229650
                        -----------------------------------------
Magnitude (a.u.)       :      1.990222022
Magnitude (Debye)      :      5.058742355



--------------------
Rotational spectrum 
--------------------
 
Rotational constants in cm-1:             0.022788             0.002639             0.002432 
Rotational constants in MHz :           683.157989            79.110665            72.911629 

Dipole components along the rotational axes: 
x,y,z [a.u.] :    -0.677122    -1.809214    -0.478786 
x,y,z [Debye]:    -1.721106    -4.598656    -1.216978 

 

Dipole moment calculation done in   0.0 sec 

Maximum memory used throughout the entire PROP-calculation: 31.2 MB

--------------------------------
SUGGESTED CITATIONS FOR THIS RUN
--------------------------------

Below you find a list of papers that are relevant to this ORCA run
We neither can nor want to force you to cite these papers, but we appreciate if you do
You receive ORCA, which is the product of decades of hard work by many enthusiastic individuals, for free
The only thing we kindly ask in return is that you cite our papers,
We deeply appreciate it, if you show your appreciation for ORCA by not just citing the generic ORCA reference.

Please note that relegating all ORCA citations to the supporting information does *not* help us.
SI sections are not indexed - citations you put there will not count into any citation statistics
But we need these citations in order to attract the funding resources that allow us to do what we are doing

Therefore, if you are a happy ORCA user, please consider citing a few of the papers listed below in the main body of your paper

In addition to the list printed below, the program has created the file td.bibtex that contains the list in bibtex format
You can import this file easily into all common literature databanks and citation aid programs

It goes without saying that in many instances, there are alternative algorithms to achieve similar
results as the ones you have gotten from ORCA. It is, of course, also the case that in some instances
ORCA just re-implements algorithms worked out by others. We are fully aware of that and we are also
fully appreciative of our colleagues work. Hence this citation list should not be read as indicating
that the listed papers, which are focused on our own work, are the only ones worth citing. It simply
meant to make it easier for users to cite ORCA specific papers. It is not a substitute for doing your
own literature research and citing the relevant literature in a scientifically appropriate manner.

List of essential papers. We consider these as the minimum necessary citations

  1. Neese, F.
     Software update: the ORCA program system, version 6.0
     WIRES Comput. Molec. Sci. 2025 15(1), e70019
     doi.org/10.1002/wcms.70019

List of papers to cite with high priority. The work reported in these papers was absolutely
necessary for this run to complete.
Our perspective: the developers of density functionals and basis sets usually get cited in chemistry papers
Good! But without the algorithms to do something with them, the functionals or basis sets would not do anything.
Hence, in our opinion, the algorithm design and method developments papers are equally worthy of getting cited

  1. Neese, F.; Olbrich, G.
     Efficient use of the resolution of the identity approximation in time-dependent density functional calculations with hybrid density functionals
     Chem. Phys. Lett. 2002 362 , 170-178
     doi.org/10.1016/s0009-2614(02)01053-9
  2. Neese, F.
     An improvement of the resolution of the identity approximation for the formation of the Coulomb matrix
     J. Comp. Chem. 2003 24(14), 1740-1747
     doi.org/10.1002/jcc.10318
  3. Neese, F.; Wennmohs, F.; Hansen, A.; Becker, U.
     Efficient, approximate and parallel Hartree-Fock and hybrid DFT calculations. A 'chain-of-spheres' algorithm for the Hartree-Fock exchange
     Chem. Phys. 2009 356(1-3), 98-109
     doi.org/10.1016/j.chemphys.2008.10.036
  4. Garcia-Rates, M.; Neese, F.
     Effect of the Solute Cavity on the Solvation Energy and its Derivatives within the Framework of the Gaussian Charge Scheme
     J. Comput. Chem. 2020 41 , 922-939
     doi.org/10.1002/jcc.26139
  5. Helmich-Paris, B.; de Souza, B.; Neese, F.; Izsák, R.
     An improved chain of spheres for exchange algorithm
     J. Chem. Phys. 2021 155(10), 104109
     doi.org/10.1063/5.0058766
  6. Neese, F.
     The SHARK Integral Generation and Digestion System
     J. Comp. Chem. 2022 44(3), 381
     doi.org/10.1002/jcc.26942

List of suggested additional citations. These are papers that are important in the 'surrounding' of 
of this run, or papers that preceded the highly important papers. If you like your results we are grateful for a citation.

  1. Izsak, R.; Neese, F.
     An overlap fitted chain of spheres exchange method
     J. Chem. Phys. 2011 135 , 144105
     doi.org/10.1063/1.3646921
  2. Izsak, R.; Hansen, A.; Neese, F.
     The resolution of identity and chain of spheres approximations for the LPNO-CCSD singles Fock term
     Molec. Phys. 2012 110 , 2413-2417
     doi.org/10.1080/00268976.2012.687466
  3. Neese, F.
     The ORCA program system
     WIRES Comput. Molec. Sci. 2012 2(1), 73-78
     doi.org/10.1002/wcms.81
  4. Izsak, R.; Neese, F.; Klopper, W.
     Robust fitting techniques in the chain of spheres approximation to the Fock exchange: The role of the complementary space
     J. Chem. Phys. 2013 139 , 
     doi.org/10.1063/1.4819264
  5. Neese, F.
     Software update: the ORCA program system, version 4.0
     WIRES Comput. Molec. Sci. 2018 8(1), 1-6
     doi.org/10.1002/wcms.1327
  6. Neese, F.; Wennmohs, F.; Becker, U.; Riplinger, C.
     The ORCA quantum chemistry program package
     J. Chem. Phys. 2020 152(22), 224108
     doi.org/10.1063/5.0004608
  7. Neese, F.
     Software update: The ORCA program system—Version 5.0
     WIRES Comput. Molec. Sci. 2022 12(1), e1606
     doi.org/10.1002/wcms.1606

List of optional additional citations

  1. Neese, F.
     Approximate second-order SCF convergence for spin unrestricted wavefunctions
     Chem. Phys. Lett. 2000 325(1-3), 93-98
     doi.org/10.1016/s0009-2614(00)00662-x

Timings for individual modules:

Sum of individual times          ...      933.059 sec (=  15.551 min)
Startup calculation              ...        7.780 sec (=   0.130 min)   0.8 %
SCF iterations                   ...      337.724 sec (=   5.629 min)  36.2 %
Property integrals               ...        0.540 sec (=   0.009 min)   0.1 %
Property calculations            ...        0.283 sec (=   0.005 min)   0.0 %
CIS module                       ...      586.732 sec (=   9.779 min)  62.9 %
                             ****ORCA TERMINATED NORMALLY****
TOTAL RUN TIME: 0 days 0 hours 15 minutes 33 seconds 819 msec
