
                                 *****************
                                 * O   R   C   A *
                                 *****************

                                            #,                                       
                                            ###                                      
                                            ####                                     
                                            #####                                    
                                            ######                                   
                                           ########,                                 
                                     ,,################,,,,,                         
                               ,,#################################,,                 
                          ,,##########################################,,             
                       ,#########################################, ''#####,          
                    ,#############################################,,   '####,        
                  ,##################################################,,,,####,       
                ,###########''''           ''''###############################       
              ,#####''   ,,,,##########,,,,          '''####'''          '####       
            ,##' ,,,,###########################,,,                        '##       
           ' ,,###''''                  '''############,,,                           
         ,,##''                                '''############,,,,        ,,,,,,###''
      ,#''                                            '''#######################'''  
     '                                                          ''''####''''         
             ,#######,   #######,   ,#######,      ##                                
            ,#'     '#,  ##    ##  ,#'     '#,    #''#        ,####,    ,#,          
            ##       ##  ##   ,#'  ##            #'  '#       #'       ,# #          
            ##       ##  #######   ##           ,######,      #####,      #          
            '#,     ,#'  ##    ##  '#,     ,#' ,#      #,     #,   #      #          
             '#######'   ##     ##  '#######'  #'      '#     '####' #    #          



                #########################################################
                #                        -***-                          #
                #          Department of theory and spectroscopy        #
                #                                                       #
                #                      Frank Neese                      #
                #                                                       #
                #     Directorship, Architecture, Infrastructure        #
                #                    SHARK, DRIVERS                     #
                #        Core code/Algorithms in most modules           #
                #                                                       #
                #        Max Planck Institute fuer Kohlenforschung      #
                #                Kaiser Wilhelm Platz 1                 #
                #                 D-45470 Muelheim/Ruhr                 #
                #                      Germany                          #
                #                                                       #
                #                  All rights reserved                  #
                #                        -***-                          #
                #########################################################


                         Program Version 6.1.1  -  RELEASE   -


 With contributions from (in alphabetic order):
[Max-Planck-Institut fuer Kohlenforschung]                               
  Daniel Aravena         : Magnetic Suceptibility                        
  Michael Atanasov       : Ab Initio Ligand Field Theory (pilot matlab implementation)
  Alexander A. Auer      : GIAO ZORA, VPT2 properties, NMR spectrum      
  Ute Becker             : All parallelization in ORCA, NUMFREQ, NUMCALC 
  Giovanni Bistoni       : ED, misc. LED, open-shell LED, HFLD           
  Dmytro Bykov           : pre 5.0 version of the SCF Hessian            
  Marcos Casanova-Páez   : Triplet and SCS-CIS(D). UHF-(DLPNO)-IP/EA/STEOM-CCSD. UHF-CVS-IP/STEOM-CCSD   
  Vijay G. Chilkuri      : MRCI spin determinant printing, contributions to CSF-ICE 
  Pauline Colinet        : FMM embedding                                 
  Dipayan Datta          : RHF DLPNO-CCSD density                        
  Achintya Kumar Dutta   : EOM-CC, STEOM-CC                              
  Nicolas Foglia         : Exact transition moments, OPA infrastructure, MCD improvements    
  Dmitry Ganyushin       : Spin-Orbit,Spin-Spin,Magnetic field MRCI      
  Miquel Garcia-Rates    : C-PCM and meta-GGA Hessian, CCSD/C-PCM, Gaussian charge scheme 
  Tiago L. C. Gouveia    : GS-ROHF, GS-ROCIS                             
  Yang Guo               : DLPNO-NEVPT2, F12-NEVPT2, CIM, IAO-localization        
  Andreas Hansen         : Spin unrestricted coupled pair/coupled cluster methods 
  Ingolf Harden          : AUTO-CI MPn and infrastructure                
  Benjamin Helmich-Paris : MC-RPA, TRAH-(SCF,CASSCF), AVAS, COSX integrals, SCF dyn. polar., MC-PDFT, srDFT 
  Lee Huntington         : MR-EOM, pCC                                   
  Robert Izsak           : Overlap fitted RIJCOSX, COSX-SCS-MP3, EOM     
  Riya Kayal             : Wick's Theorem for AUTO-CI, AUTO-CI UHF-CCSDT 
  Emily Kempfer          : AUTO-CI RHF CISDT and CCSDT, approximate NEVPT4
  Christian Kollmar      : KDIIS, OOCD, Brueckner-CCSD(T), CCSD density, CASPT2, CASPT2-K, improved NEVPT2 
  Axel Koslowski         : Symmetry handling                             
  Simone Kossmann        : meta-GGA functionals, TD-DFT gradient, OOMP2, (MP2 Hessian; deprecated post 5.0) 
  Lucas Lang             : DCDCAS, Hyperfine gauge corrections, ICE-SOC+SSC
  Marvin Lechner         : AUTO-CI (C++ implementation), FIC-MRCC        
  Spencer Leger          : CASSCF response                               
  Dagmar Lenk            : GEPOL surface, SMD, ORCA-2-JSON               
  Dimitrios Liakos       : Extrapolation schemes; Compound Job, Property file
  Dimitrios Manganas     : Further ROCIS development; embedding schemes. LFT, Crystal Embedding 
  Dimitrios Pantazis     : SARC Basis sets                               
  Anastasios Papadopoulos: AUTO-CI, single reference methods and gradients 
  Taras Petrenko         : pre 6.0 DFT Hessian and TD-DFT gradient,  ECA, NRVS 
  Petra Pikulova         : Analytic Raman intensities                    
  Peter Pinski           : DLPNO-MP2, DLPNO-MP2 Gradient                 
  Shashank Vittal Rao    : ES-AILFT, MagRelax                            
  Christoph Reimann      : Effective Core Potentials                     
  Marius Retegan         : Local ZFS, SOC                                
  Christoph Riplinger    : Optimizer, TS searches, QM/MM, DLPNO-CCSD(T), (RO)-DLPNO pert. Triples 
  Michael Roemelt        : Original ROCIS implementation, recursive CI coupling coefficients
  Masaaki Saitow         : Open-shell DLPNO-CCSD energy and density      
  Barbara Sandhoefer     : DKH picture change effects                    
  Yorick L. A. Schmerwitz: GMF and freeze-and-release deltaSCF, NEB S-IDPP initial path                    
  Kantharuban Sivalingam : CASSCF convergence/infrastructure, NEVPT2, NEVPT3, NEVPT4(SD), FIC-MRCI and CEPA variants
  Bernardo de Souza      : ESD, SOC TD-DFT                               
  Georgi L. Stoychev     : AutoAux, RI-MP2 NMR, DLPNO-MP2 response, X2C  
  Van Anh Tran           : RI-MP2 g-tensors                              
  Willem Van den Heuvel  : Paramagnetic NMR                              
  Zikuan Wang            : NOTCH, Electric field optimization            
  Frank Wennmohs         : Technical directorship and infrastructure     
  Hang Xu                : AUTO-CI-Response properties                   
                                                                         
[FACCTs GmbH]                                                            
  Markus Bursch, Nicolas Foglia, Miquel Garcia-Rates, Ingolf Harden, Hagen Neugebauer, Anastasios Papadopoulos, 
  Christoph Riplinger, Bernardo de Souza, Georgi L. Stoychev                                                    
                                                                 
  APM, various basis sets, CI-OPT, improved COSX, DLPNO-Multilevel,           
  DOCKER, DRACO, updates on ESD, Fragmentator, GOAT, IRC, LR-CPCM, L-BFGS, MBIS, meta-GGA TD-DFT gradient, ML-optimized integration grids, 
  MM, NACMEs, nearIR, NEB, NEB-TS, NL-DFT gradient (VV10), 2- and 3-layer-ONIOM, interface openCOSMO-RS, QMMM,   
  Crystal-QMMM, RESP, rigid body optimization, SF, symmetry and pop. for TD-DFT, various functionals, SOLVATOR                                   
                                                                         
[Other institutions]                                                     
  V. Asgeirsson          : NEB                                           
  Christoph Bannwarth    : sTDA-DFT, sTD-DFT, PBEh-3c, B97-3c, D3        
  Giovanni Bistoni       : ETS/NOCV, ADLD/ADEX, COVALED                  
  Martin Brehm           : Molecular dynamics                            
  Ronald Cardenas        : ETS/NOCV                                      
  Martina Colucci        : COVALED                                       
  Sebastian Ehlert       : rSCAN, r2SCAN, r2SCAN-3c, D4, dhf basis sets  
  Marvin Friede          : D4 for Fr, Ra, Ac-Lr                          
  Lars Goerigk           : TD-DFT with DH, B97 family of functionals     
  Stefan Grimme          : VdW corrections, initial TS optimization, DFT functionals, gCP, sTDA/sTD-DF 
  Waldemar Hujo          : DFT-NL                                        
  H. Jonsson             : NEB                                           
  Holger Kruse           : gCP                                           
  Marcel Mueller         : wB97X-3c, vDZP basis set                      
  Hagen Neugebauer       : wr2SCAN, Native XTB                           
  Gianluca Regni         : ADLD/ADEX                                     
  Tobias Risthaus        : pre 6.0 range-separated hybrid DFT and stability analysis
  Lukas Wittmann         : regularized MP2, r2SCAN double-hybrids, wr2SCAN        
                                                                         
We gratefully acknowledge several colleagues who have allowed us to      
interface, adapt or use parts of their codes:                            
  Ed Valeev, F. Pavosevic, A. Kumar             : LibInt (2-el integral package), F12 methods 
  Garnet Chan, S. Sharma, J. Yang, R. Olivares  : DMRG                   
  Ulf Ekstrom                                   : XCFun DFT Library      
  Mihaly Kallay                                 : mrcc  (arbitrary order and MRCC methods)
  Frank Weinhold                                : gennbo (NPA and NBO analysis)           
  Simon Mueller                                 : openCOSMO-RS                            
  Christopher J. Cramer and Donald G. Truhlar   : smd solvation model                     
  S Lehtola, MJT Oliveira, MAL Marques          : LibXC Library                           
  Liviu Ungur et al                             : ANISO software                          


 Your calculation uses the libint2 library for the computation of 2-el integrals
 For citations please refer to: http://libint.valeyev.net

 Your ORCA version has been built with support for libXC version: 7.0.0
 For citations please refer to: https://libxc.gitlab.io

 This ORCA versions uses:
   CBLAS   interface :  Fast vector & matrix operations
   LAPACKE interface :  Fast linear algebra routines
   Shared memory     :  Shared parallel matrices


  ***********************************
  * Starting time: Tue Jul 21 20:09:10 2026
  * Host name:     DESKTOP-19Q153E
  * Process ID:    36156
  * Working dir.:  C:\Users\ysm04\Documents\etc\uv_vis\calculations\02_tddft_orca\diketo\diketo_c000\b3lyp_631+gd\none\dftopt22
  ***********************************

NOTE: MaxCore=2500 MB was set to SCF,MP2,MDCI,CIPSI,MRCI,RASCI and CIS
      => If you want to overwrite this, your respective input block should be placed after the MaxCore statement
================================================================================

----- Orbital basis set information -----
Your calculation utilizes the basis: 6-31+G(d)
   H-He, Li-Ne : W. J. Hehre, R. Ditchfield and J.A. Pople, J. Chem. Phys. 56, 2257 (1972).
                 Note: He and Ne are unpublished basis sets taken from the Gaussian program.
                 Note: Li and B from J. D. Dill and J. A. Pople, J. Chem. Phys. 62, 2921 (1975).
   Na - Ar     : M. M. Francl, W. J. Pietro, W. J. Hehre, J. S. Binkley, M. S. Gordon, 
                 D. J. DeFrees and J. A. Pople, J. Chem. Phys. 77, 3654 (1982).
   K - Zn      : V. A. Rassolov, J. A. Pople, M. A. Ratner, and T. L. Windus, J. Chem. Phys. 109, 1223 (1998).
   Additional Pol./Diff. from the 6-311G equivalent.

----- AuxJ basis set information -----
Your calculation utilizes the auxiliary basis: def2/J
   H-Rn: F. Weigend, Phys. Chem. Chem. Phys. 8, 1057 (2006).
   Fr-Lr: K. Eichkorn, F. Weigend, O. Treutler, R. Ahlrichs; Theor. Chem. Acc. 97, 119 (1997).

================================================================================
                                        WARNINGS
                       Please study these warnings very carefully!
================================================================================


WARNING: CIS/ROCIS methods need fully converged wavefunctions
  ===> : Setting SCFConvForced true
         You can overwrite this default with %scf ConvForced false 


================================================================================
                                       INPUT FILE
================================================================================
NAME = td.inp
|  1> # diketo / diketo_c000 / b3lyp_631+gd / solvent=none
|  2> ! B3LYP 6-31+G(d) RIJCOSX def2/J TightSCF
|  3> %pal nprocs 4 end
|  4> %maxcore 2500
|  5> %scf
|  6>   MaxIter 300
|  7> end
|  8> %tddft
|  9>   nroots 22
| 10>   tda    true
| 11>   maxdim 5
| 12> end
| 13> * xyz 0 1
| 14> C     -5.4709956342     1.7597022103     0.4418989051
| 15> C     -4.8664773089     0.4913451308    -0.1878447721
| 16> C     -5.7705041695    -0.7110893324     0.1757865928
| 17> C     -4.8454730881     0.6722758927    -1.7246188114
| 18> C     -3.4354089581     0.2174585406     0.3100588498
| 19> C     -2.7281071581    -0.9065887830    -0.1630458037
| 20> C     -1.4354509394    -1.1972741243     0.2698852106
| 21> C     -0.7880196994    -0.3590885201     1.1981369335
| 22> C     -1.4817396235     0.7696408148     1.6694928640
| 23> C     -2.7770801470     1.0493825999     1.2366962844
| 24> C      0.5928257391    -0.6102065791     1.7060899258
| 25> O      1.1343245856     0.1701150436     2.4752346914
| 26> C      1.3378235909    -1.8745842932     1.2579328986
| 27> C      1.9572976155    -1.7790283732    -0.1453601734
| 28> O      1.3904063024    -2.3104624028    -1.0908331591
| 29> C      3.2375291275    -1.0470979578    -0.3245145515
| 30> C      3.8158819200    -1.0094048510    -1.6147045411
| 31> C      5.0101041286    -0.3480372455    -1.8445697989
| 32> C      5.6734506973     0.3091296857    -0.7837841045
| 33> O      6.8283245304     0.9245894010    -1.0990022437
| 34> C      7.5599401126     1.6145588329    -0.0923216434
| 35> C      5.1091432373     0.2866773004     0.5050739746
| 36> C      3.9073569454    -0.3892278917     0.7235115339
| 37> H     -5.5403651380     1.6808533615     1.5385361778
| 38> H     -4.8840930037     2.6596143528     0.1984592367
| 39> H     -6.4905916119     1.9124446070     0.0540685529
| 40> H     -5.4198305432    -1.6449109767    -0.2902760832
| 41> H     -6.8004263266    -0.5280173467    -0.1725183434
| 42> H     -5.8021645117    -0.8652560145     1.2667966147
| 43> H     -4.2110259918     1.5262024665    -2.0132539663
| 44> H     -4.4648740354    -0.2239851248    -2.2382960564
| 45> H     -5.8655535197     0.8646712744    -2.0960035150
| 46> H     -3.1948424217    -1.5777290437    -0.8875030938
| 47> H     -0.9230840956    -2.0694764533    -0.1388465157
| 48> H     -0.9868756500     1.4271985667     2.3874082024
| 49> H     -3.2758285752     1.9338653878     1.6336574080
| 50> H      2.1184149818    -2.0609215114     2.0065553395
| 51> H      0.6533607624    -2.7323197940     1.2401140420
| 52> H      3.3009752769    -1.5160974129    -2.4334821026
| 53> H      5.4616045161    -0.3188656008    -2.8390355606
| 54> H      8.4480255871     2.0284595094    -0.5870827703
| 55> H      6.9671467592     2.4373651349     0.3412406609
| 56> H      7.8764222639     0.9309161920     0.7132505205
| 57> H      5.5968919371     0.7895023807     1.3403217329
| 58> H      3.4815615337    -0.3762990740     1.7279518780
| 59> *
| 60> 
| 61>                          ****END OF INPUT****
================================================================================

                       ****************************
                       * Single Point Calculation *
                       ****************************

---------------------------------
CARTESIAN COORDINATES (ANGSTROEM)
---------------------------------
  C     -5.470996    1.759702    0.441899
  C     -4.866477    0.491345   -0.187845
  C     -5.770504   -0.711089    0.175787
  C     -4.845473    0.672276   -1.724619
  C     -3.435409    0.217459    0.310059
  C     -2.728107   -0.906589   -0.163046
  C     -1.435451   -1.197274    0.269885
  C     -0.788020   -0.359089    1.198137
  C     -1.481740    0.769641    1.669493
  C     -2.777080    1.049383    1.236696
  C      0.592826   -0.610207    1.706090
  O      1.134325    0.170115    2.475235
  C      1.337824   -1.874584    1.257933
  C      1.957298   -1.779028   -0.145360
  O      1.390406   -2.310462   -1.090833
  C      3.237529   -1.047098   -0.324515
  C      3.815882   -1.009405   -1.614705
  C      5.010104   -0.348037   -1.844570
  C      5.673451    0.309130   -0.783784
  O      6.828325    0.924589   -1.099002
  C      7.559940    1.614559   -0.092322
  C      5.109143    0.286677    0.505074
  C      3.907357   -0.389228    0.723512
  H     -5.540365    1.680853    1.538536
  H     -4.884093    2.659614    0.198459
  H     -6.490592    1.912445    0.054069
  H     -5.419831   -1.644911   -0.290276
  H     -6.800426   -0.528017   -0.172518
  H     -5.802165   -0.865256    1.266797
  H     -4.211026    1.526202   -2.013254
  H     -4.464874   -0.223985   -2.238296
  H     -5.865554    0.864671   -2.096004
  H     -3.194842   -1.577729   -0.887503
  H     -0.923084   -2.069476   -0.138847
  H     -0.986876    1.427199    2.387408
  H     -3.275829    1.933865    1.633657
  H      2.118415   -2.060922    2.006555
  H      0.653361   -2.732320    1.240114
  H      3.300975   -1.516097   -2.433482
  H      5.461605   -0.318866   -2.839036
  H      8.448026    2.028460   -0.587083
  H      6.967147    2.437365    0.341241
  H      7.876422    0.930916    0.713251
  H      5.596892    0.789502    1.340322
  H      3.481562   -0.376299    1.727952

----------------------------
CARTESIAN COORDINATES (A.U.)
----------------------------
  NO LB      ZA    FRAG     MASS         X           Y           Z
   0 C     6.0000    0    12.011  -10.338683    3.325355    0.835068
   1 C     6.0000    0    12.011   -9.196309    0.928508   -0.354975
   2 C     6.0000    0    12.011  -10.904673   -1.343764    0.332189
   3 C     6.0000    0    12.011   -9.156617    1.270417   -3.259057
   4 C     6.0000    0    12.011   -6.491982    0.410937    0.585926
   5 C     6.0000    0    12.011   -5.155375   -1.713205   -0.308112
   6 C     6.0000    0    12.011   -2.712609   -2.262520    0.510009
   7 C     6.0000    0    12.011   -1.489141   -0.678579    2.264151
   8 C     6.0000    0    12.011   -2.800082    1.454410    3.154884
   9 C     6.0000    0    12.011   -5.247921    1.983046    2.337017
  10 C     6.0000    0    12.011    1.120278   -1.153123    3.224043
  11 O     8.0000    0    15.999    2.143563    0.321471    4.677516
  12 C     6.0000    0    12.011    2.528120   -3.542451    2.377149
  13 C     6.0000    0    12.011    3.698756   -3.361876   -0.274691
  14 O     8.0000    0    15.999    2.627487   -4.366141   -2.061376
  15 C     6.0000    0    12.011    6.118043   -1.978728   -0.613244
  16 C     6.0000    0    12.011    7.210972   -1.907499   -3.051349
  17 C     6.0000    0    12.011    9.467725   -0.657695   -3.485732
  18 C     6.0000    0    12.011   10.721268    0.584170   -1.481137
  19 O     8.0000    0    15.999   12.903663    1.747221   -2.076813
  20 C     6.0000    0    12.011   14.286216    3.051074   -0.174463
  21 C     6.0000    0    12.011    9.654881    0.541742    0.954451
  22 C     6.0000    0    12.011    7.383835   -0.735534    1.367239
  23 H     1.0000    0     1.008  -10.469773    3.176353    2.907412
  24 H     1.0000    0     1.008   -9.229598    5.025943    0.375034
  25 H     1.0000    0     1.008  -12.265441    3.613997    0.102175
  26 H     1.0000    0     1.008  -10.241995   -3.108431   -0.548542
  27 H     1.0000    0     1.008  -12.850943   -0.997808   -0.326012
  28 H     1.0000    0     1.008  -10.964502   -1.635097    2.393899
  29 H     1.0000    0     1.008   -7.957686    2.884105   -3.804499
  30 H     1.0000    0     1.008   -8.437389   -0.423271   -4.229767
  31 H     1.0000    0     1.008  -11.084290    1.633992   -3.960873
  32 H     1.0000    0     1.008   -6.037377   -2.981476   -1.677138
  33 H     1.0000    0     1.008   -1.744376   -3.910744   -0.262382
  34 H     1.0000    0     1.008   -1.864925    2.697014    4.511548
  35 H     1.0000    0     1.008   -6.190419    3.654476    3.087165
  36 H     1.0000    0     1.008    4.003224   -3.894577    3.791840
  37 H     1.0000    0     1.008    1.234673   -5.163336    2.343476
  38 H     1.0000    0     1.008    6.237939   -2.865009   -4.598615
  39 H     1.0000    0     1.008   10.320937   -0.602569   -5.365000
  40 H     1.0000    0     1.008   15.964455    3.833233   -1.109426
  41 H     1.0000    0     1.008   13.165999    4.605953    0.644851
  42 H     1.0000    0     1.008   14.884281    1.759177    1.347848
  43 H     1.0000    0     1.008   10.576593    1.491943    2.532841
  44 H     1.0000    0     1.008    6.579198   -0.711102    3.265356

--------------------------------
INTERNAL COORDINATES (ANGSTROEM)
--------------------------------
 C      0   0   0     0.000000000000     0.00000000     0.00000000
 C      1   0   0     1.539723736816     0.00000000     0.00000000
 C      2   1   0     1.547688913353   108.33476575     0.00000000
 C      2   1   3     1.547530796385   108.37129901   118.59940846
 C      2   1   3     1.539765730770   112.28227729   239.33431579
 C      5   2   1     1.409817802107   119.97268463   179.95177331
 C      6   5   2     1.393874933605   121.82382971   180.53412886
 C      7   6   5     1.408322966753   120.45988924   359.56297329
 C      8   7   6     1.406219633548   118.15538841     0.00000000
 C      9   8   7     1.394085871625   121.02315754     0.32898634
 C      8   7   6     1.492585222682   123.33125175   179.91257713
 O     11   8   7     1.222172862595   121.10748753   177.34641181
 C     11   8   7     1.534443718136   119.23591935   357.01583826
 C     13  11   8     1.536915888045   114.27614114    79.19638954
 O     14  13  11     1.223808422660   119.45187761   258.63607174
 C     14  13  11     1.485533960735   119.21622354    78.91077396
 C     16  14  13     1.414391364565   118.39413502   177.84007316
 C     17  16  14     1.384345271188   121.12752276   180.25060782
 C     18  17  16     1.413210294016   120.16207934   359.80708003
 O     19  18  17     1.346063411143   116.07582349   179.94207193
 C     20  19  18     1.422928321489   119.81269183   179.80158331
 C     19  18  17     1.407161030969   119.46277259   359.91095120
 C     22  19  18     1.396013283396   119.75377208     0.37400162
 H      1   2   3     1.101654472550   111.89449973    59.76033966
 H      1   2   3     1.101616736464   111.92386656   181.37542748
 H      1   2   3     1.101507412403   109.48998342   300.57479129
 H      3   2   1     1.101003757262   111.92865156   177.03387229
 H      3   2   1     1.102529514442   110.02418532    57.28225347
 H      3   2   1     1.102303320790   110.97621471   297.80822367
 H      4   2   1     1.102281254531   111.00307734    61.84608440
 H      4   2   1     1.100910424348   111.89210795   182.61584585
 H      4   2   1     1.102500189524   110.02072626   302.35115121
 H      6   5   2     1.092295482459   119.87317115     0.40437587
 H      7   6   5     1.091017098593   119.07015032   181.04966139
 H      9   8   7     1.092096599419   118.69187039   180.17127068
 H     10   9   8     1.090246729127   118.34740248   179.74505562
 H     13  11   8     1.097488058000   106.61882802   201.30456884
 H     13  11   8     1.097504926905   110.23847682   319.21850034
 H     17  16  14     1.091907916726   118.60834640     0.17555177
 H     18  17  16     1.092550106842   121.35866484   179.82933041
 H     21  20  19     1.097632977236   106.25755671   180.15459783
 H     21  20  19     1.102900921278   111.31587760   299.07650830
 H     21  20  19     1.102939129689   111.32809533    61.22307793
 H     22  19  18     1.090124154984   120.99685152   180.31328323
 H     23  22  19     1.091040462956   118.31268435   181.09360019

---------------------------
INTERNAL COORDINATES (A.U.)
---------------------------
 C      0   0   0     0.000000000000     0.00000000     0.00000000
 C      1   0   0     2.909656184480     0.00000000     0.00000000
 C      2   1   0     2.924708186744   108.33476575     0.00000000
 C      2   1   3     2.924409388976   108.37129901   118.59940846
 C      2   1   3     2.909735541553   112.28227729   239.33431579
 C      5   2   1     2.664169544710   119.97268463   179.95177331
 C      6   5   2     2.634041889452   121.82382971   180.53412886
 C      7   6   5     2.661344715274   120.45988924   359.56297329
 C      8   7   6     2.657369991548   118.15538841     0.00000000
 C      9   8   7     2.634440504541   121.02315754     0.32898634
 C      8   7   6     2.820577302407   123.33125175   179.91257713
 O     11   8   7     2.309571998615   121.10748753   177.34641181
 C     11   8   7     2.899678395194   119.23591935   357.01583826
 C     13  11   8     2.904350119277   114.27614114    79.19638954
 O     14  13  11     2.312662759214   119.45187761   258.63607174
 C     14  13  11     2.807252348429   119.21622354    78.91077396
 C     16  14  13     2.672812325212   118.39413502   177.84007316
 C     17  16  14     2.616033437335   121.12752276   180.25060782
 C     18  17  16     2.670580425328   120.16207934   359.80708003
 O     19  18  17     2.543691205951   116.07582349   179.94207193
 C     20  19  18     2.688944835814   119.81269183   179.80158331
 C     19  18  17     2.659148974858   119.46277259   359.91095120
 C     22  19  18     2.638082784936   119.75377208     0.37400162
 H      1   2   3     2.081825247329   111.89449973    59.76033966
 H      1   2   3     2.081753936461   111.92386656   181.37542748
 H      1   2   3     2.081547343926   109.48998342   300.57479129
 H      3   2   1     2.080595573644   111.92865156   177.03387229
 H      3   2   1     2.083478836860   110.02418532    57.28225347
 H      3   2   1     2.083051392805   110.97621471   297.80822367
 H      4   2   1     2.083009693618   111.00307734    61.84608440
 H      4   2   1     2.080419199996   111.89210795   182.61584585
 H      4   2   1     2.083423420797   110.02072626   302.35115121
 H      6   5   2     2.064139319166   119.87317115     0.40437587
 H      7   6   5     2.061723523767   119.07015032   181.04966139
 H      9   8   7     2.063763484688   118.69187039   180.17127068
 H     10   9   8     2.060267736454   118.34740248   179.74505562
 H     13  11   8     2.073951864869   106.61882802   201.30456884
 H     13  11   8     2.073983742480   110.23847682   319.21850034
 H     17  16  14     2.063406926073   118.60834640     0.17555177
 H     18  17  16     2.064620489518   121.35866484   179.82933041
 H     21  20  19     2.074225722537   106.25755671   180.15459783
 H     21  20  19     2.084180694065   111.31587760   299.07650830
 H     21  20  19     2.084252897497   111.32809533    61.22307793
 H     22  19  18     2.060036104893   120.99685152   180.31328323
 H     23  22  19     2.061767676014   118.31268435   181.09360019

---------------------
BASIS SET INFORMATION
---------------------
There are 3 groups of distinct atoms

 Group   1 Type C   : 11s5p1d contracted to 4s3p1d pattern {6311/311/1}
 Group   2 Type O   : 11s5p1d contracted to 4s3p1d pattern {6311/311/1}
 Group   3 Type H   : 4s contracted to 2s pattern {31}

Atom   0C    basis set group =>   1
Atom   1C    basis set group =>   1
Atom   2C    basis set group =>   1
Atom   3C    basis set group =>   1
Atom   4C    basis set group =>   1
Atom   5C    basis set group =>   1
Atom   6C    basis set group =>   1
Atom   7C    basis set group =>   1
Atom   8C    basis set group =>   1
Atom   9C    basis set group =>   1
Atom  10C    basis set group =>   1
Atom  11O    basis set group =>   2
Atom  12C    basis set group =>   1
Atom  13C    basis set group =>   1
Atom  14O    basis set group =>   2
Atom  15C    basis set group =>   1
Atom  16C    basis set group =>   1
Atom  17C    basis set group =>   1
Atom  18C    basis set group =>   1
Atom  19O    basis set group =>   2
Atom  20C    basis set group =>   1
Atom  21C    basis set group =>   1
Atom  22C    basis set group =>   1
Atom  23H    basis set group =>   3
Atom  24H    basis set group =>   3
Atom  25H    basis set group =>   3
Atom  26H    basis set group =>   3
Atom  27H    basis set group =>   3
Atom  28H    basis set group =>   3
Atom  29H    basis set group =>   3
Atom  30H    basis set group =>   3
Atom  31H    basis set group =>   3
Atom  32H    basis set group =>   3
Atom  33H    basis set group =>   3
Atom  34H    basis set group =>   3
Atom  35H    basis set group =>   3
Atom  36H    basis set group =>   3
Atom  37H    basis set group =>   3
Atom  38H    basis set group =>   3
Atom  39H    basis set group =>   3
Atom  40H    basis set group =>   3
Atom  41H    basis set group =>   3
Atom  42H    basis set group =>   3
Atom  43H    basis set group =>   3
Atom  44H    basis set group =>   3
---------------------------------
AUXILIARY/J BASIS SET INFORMATION
---------------------------------
There are 3 groups of distinct atoms

 Group   1 Type C   : 12s5p4d2f1g contracted to 6s4p3d1f1g pattern {711111/2111/211/2/1}
 Group   2 Type O   : 12s5p4d2f1g contracted to 6s4p3d1f1g pattern {711111/2111/211/2/1}
 Group   3 Type H   : 5s2p1d contracted to 3s1p1d pattern {311/2/1}

Atom   0C    basis set group =>   1
Atom   1C    basis set group =>   1
Atom   2C    basis set group =>   1
Atom   3C    basis set group =>   1
Atom   4C    basis set group =>   1
Atom   5C    basis set group =>   1
Atom   6C    basis set group =>   1
Atom   7C    basis set group =>   1
Atom   8C    basis set group =>   1
Atom   9C    basis set group =>   1
Atom  10C    basis set group =>   1
Atom  11O    basis set group =>   2
Atom  12C    basis set group =>   1
Atom  13C    basis set group =>   1
Atom  14O    basis set group =>   2
Atom  15C    basis set group =>   1
Atom  16C    basis set group =>   1
Atom  17C    basis set group =>   1
Atom  18C    basis set group =>   1
Atom  19O    basis set group =>   2
Atom  20C    basis set group =>   1
Atom  21C    basis set group =>   1
Atom  22C    basis set group =>   1
Atom  23H    basis set group =>   3
Atom  24H    basis set group =>   3
Atom  25H    basis set group =>   3
Atom  26H    basis set group =>   3
Atom  27H    basis set group =>   3
Atom  28H    basis set group =>   3
Atom  29H    basis set group =>   3
Atom  30H    basis set group =>   3
Atom  31H    basis set group =>   3
Atom  32H    basis set group =>   3
Atom  33H    basis set group =>   3
Atom  34H    basis set group =>   3
Atom  35H    basis set group =>   3
Atom  36H    basis set group =>   3
Atom  37H    basis set group =>   3
Atom  38H    basis set group =>   3
Atom  39H    basis set group =>   3
Atom  40H    basis set group =>   3
Atom  41H    basis set group =>   3
Atom  42H    basis set group =>   3
Atom  43H    basis set group =>   3
Atom  44H    basis set group =>   3


           ************************************************************
           *        Program running with 4 parallel MPI-processes     *
           *              working on a common directory               *
           ************************************************************
------------------------------------------------------------------------------
                             ORCA STARTUP CALCULATIONS
                           -- RI-GTO INTEGRALS CHOSEN --
------------------------------------------------------------------------------
------------------------------------------------------------------------------
                   ___                                                        
                  /   \      - P O W E R E D   B Y -                         
                 /     \                                                     
                 |  |  |   _    _      __       _____    __    __             
                 |  |  |  | |  | |    /  \     |  _  \  |  |  /  |          
                  \  \/   | |  | |   /    \    | | | |  |  | /  /          
                 / \  \   | |__| |  /  /\  \   | |_| |  |  |/  /          
                |  |  |   |  __  | /  /__\  \  |    /   |      \           
                |  |  |   | |  | | |   __   |  |    \   |  |\   \          
                \     /   | |  | | |  |  |  |  | |\  \  |  | \   \       
                 \___/    |_|  |_| |__|  |__|  |_| \__\ |__|  \__/        
                                                                              
                      - O R C A' S   B I G   F R I E N D -                    
                                      &                                       
                       - I N T E G R A L  F E E D E R -                       
                                                                              
 v1 FN, 2020, v2 2021, v3 2022-2024                                           
------------------------------------------------------------------------------


----------------------
SHARK INTEGRAL PACKAGE
----------------------

Number of atoms                             ...     45
Number of basis functions                   ...    458
Number of shells                            ...    228
Maximum angular momentum                    ...      2
Integral batch strategy                     ... SHARK/LIBINT Hybrid
RI-J (if used) integral strategy            ... SPLIT-RIJ (Revised 2003 algorithm where possible)
Printlevel                                  ...      1
Contraction scheme used                     ... SEGMENTED contraction
Prescreening option                         ... SCHWARTZ
   Thresh                                   ... 2.500e-11
   Tcut                                     ... 2.500e-12
   Tpresel                                  ... 2.500e-12 
Coulomb Range Separation                    ... NOT USED
Exchange Range Separation                   ... NOT USED
Multipole approximations                    ... NOT USED
Finite Nucleus Model                        ... NOT USED
CABS basis                                  ... NOT available
Auxiliary Coulomb fitting basis             ... AVAILABLE
   # of basis functions in Aux-J            ...   1369
   # of shells in Aux-J                     ...    455
   Maximum angular momentum in Aux-J        ...      4
Auxiliary J/K fitting basis                 ... NOT available
Auxiliary Correlation fitting basis         ... NOT available
Auxiliary 'external' fitting basis          ... NOT available

Checking pre-screening integrals            ... done (  0.0 sec) Dimension = 228
   => SHARK Basis and OBASIS are compatible. Storing Pre-screening
Shell pair information
Shell pair cut-off parameter TPreSel        ...   2.5e-12
Total number of shell pairs                 ...     26106
Shell pairs after pre-screening             ...     19466
Total number of primitive shell pairs       ...    115509
Primitive shell pairs kept                  ...     52695
          la=0 lb=0:   6465 shell pairs
          la=1 lb=0:   7564 shell pairs
          la=1 lb=1:   2151 shell pairs
          la=2 lb=0:   1918 shell pairs
          la=2 lb=1:   1220 shell pairs
          la=2 lb=2:    148 shell pairs

Checking whether 4 symmetric matrices of dimension 458 fit in memory
:Max Core in MB      =   2500.00
 MB in use           =     23.07
 MB left             =   2476.93
 MB needed           =      3.21
 Data fit in memory  = YES
Calculating RI/J V-Matrix + Cholesky decomp.... done (  0.1 sec)
Calculating Nuclear repulsion               ... done (  0.0 sec) ENN=   1772.096375593933 Eh

Diagonalization of the overlap matrix:
Smallest eigenvalue                        ... 5.593e-07
Time for diagonalization                   ...    0.026 sec
Threshold for overlap eigenvalues          ... 1.000e-07
Number of eigenvalues below threshold      ... 0

IMPORTANT:
Smallest eigenvalue of S below the DiffSThresh (1.000e-06) while
Thresh>1e-12 and/or TCut>1e-13! In order to avoid SCF convergence issues,
Thresh will be set to at least 1e-12 and TCut to at least 1e-13.
This can be turned off by adding %SCF DiffSThresh -1 END to the input.

Time for construction of square roots      ...    0.019 sec
Total time needed                          ...    0.047 sec

-------------------
DFT GRID GENERATION
-------------------

General Integration Accuracy     IntAcc      ... 4.388
Radial Grid Type                 RadialGrid  ... OptM3 with GC (2021)
Angular Grid (max. ang.)         AngularGrid ... 4 (Lebedev-302)
Angular grid pruning method      GridPruning ... 4 (adaptive)
Weight generation scheme         WeightScheme... mBecke (2022)
Basis function cutoff            BFCut       ... 1.0000e-11
Integration weight cutoff        WCut        ... 1.0000e-14
Partially contracted basis set               ... off
Rotationally invariant grid construction     ... off
Angular grids for H and He will be reduced by one unit
Diffuse basis detected: some atoms will have their outermost
                        angular grid increased by 1.

Total number of grid points                  ...   213106
Total number of batches                      ...     3350
Average number of points per batch           ...       63
Average number of grid points per atom       ...     4736

--------------------
COSX GRID GENERATION
--------------------

GRIDX 1
-------
General Integration Accuracy     IntAcc      ... 3.816
Radial Grid Type                 RadialGrid  ... OptM3 with GC (2021)
Angular Grid (max. ang.)         AngularGrid ... 1 (Lebedev-50)
Angular grid pruning method      GridPruning ... 4 (adaptive)
Weight generation scheme         WeightScheme... mBecke (2022)
Basis function cutoff            BFCut       ... 1.0000e-11
Integration weight cutoff        WCut        ... 1.0000e-14
Partially contracted basis set               ... on
Rotationally invariant grid construction     ... off
Angular grids for H and He will be reduced by one unit
Diffuse basis detected: some atoms will have their outermost
                        angular grid increased by 1.

Total number of grid points                  ...    27181
Total number of batches                      ...      240
Average number of points per batch           ...      113
Average number of grid points per atom       ...      604
UseSFitting                                  ... on

GRIDX 2
-------
General Integration Accuracy     IntAcc      ... 4.020
Radial Grid Type                 RadialGrid  ... OptM3 with GC (2021)
Angular Grid (max. ang.)         AngularGrid ... 2 (Lebedev-110)
Angular grid pruning method      GridPruning ... 4 (adaptive)
Weight generation scheme         WeightScheme... mBecke (2022)
Basis function cutoff            BFCut       ... 1.0000e-11
Integration weight cutoff        WCut        ... 1.0000e-14
Partially contracted basis set               ... on
Rotationally invariant grid construction     ... off
Angular grids for H and He will be reduced by one unit
Diffuse basis detected: some atoms will have their outermost
                        angular grid increased by 1.

Total number of grid points                  ...    62467
Total number of batches                      ...      512
Average number of points per batch           ...      122
Average number of grid points per atom       ...     1388
UseSFitting                                  ... on

GRIDX 3
-------
General Integration Accuracy     IntAcc      ... 4.338
Radial Grid Type                 RadialGrid  ... OptM3 with GC (2021)
Angular Grid (max. ang.)         AngularGrid ... 3 (Lebedev-194)
Angular grid pruning method      GridPruning ... 4 (adaptive)
Weight generation scheme         WeightScheme... mBecke (2022)
Basis function cutoff            BFCut       ... 1.0000e-11
Integration weight cutoff        WCut        ... 1.0000e-14
Partially contracted basis set               ... on
Rotationally invariant grid construction     ... off
Angular grids for H and He will be reduced by one unit
Diffuse basis detected: some atoms will have their outermost
                        angular grid increased by 1.

Total number of grid points                  ...   134570
Total number of batches                      ...     1074
Average number of points per batch           ...      125
Average number of grid points per atom       ...     2990
UseSFitting                                  ... on
Grids setup in   5.6 sec
Initializing property integral containers    ... done (  0.1 sec)

SHARK setup successfully completed in   6.1 seconds

Maximum memory used throughout the entire STARTUP-calculation: 68.1 MB


           ************************************************************
           *        Program running with 4 parallel MPI-processes     *
           *              working on a common directory               *
           ************************************************************
-------------------------------------------------------------------------------
                                 ORCA GUESS
                   Start orbitals & Density for SCF / CASSCF
-------------------------------------------------------------------------------

------------
SCF SETTINGS
------------
Hamiltonian:
 Density Functional     Method          .... DFT(GTOs)
 Exchange Functional    Exchange        .... B88
   X-Alpha parameter    XAlpha          ....  0.666667
   Becke's b parameter  XBeta           ....  0.004200
 Correlation Functional Correlation     .... LYP
 LDA part of GGA corr.  LDAOpt          .... VWN-5
 Gradients option       PostSCFGGA      .... off
 Hybrid DFT is turned on
   Fraction HF Exchange ScalHFX         ....  0.200000
   Scaling of DF-GGA-X  ScalDFX         ....  0.720000
   Scaling of DF-GGA-C  ScalDFC         ....  0.810000
   Scaling of DF-LDA-C  ScalLDAC        ....  1.000000
   Perturbative correction              ....  0.000000
   NL short-range parameter             ....  4.800000
 RI-approximation to the Coulomb term is turned on
   Number of AuxJ basis functions       .... 1369
   RIJ-COSX (HFX calculated with COS-X)).... on


General Settings:
 Integral files         IntName         .... td
 Hartree-Fock type      HFTyp           .... RHF
 Total Charge           Charge          ....    0
 Multiplicity           Mult            ....    1
 Number of Electrons    NEL             ....  166
 Basis Dimension        Dim             ....  458
 Nuclear Repulsion      ENuc            ....   1772.0963755939 Eh

Convergence Acceleration:
 AO-DIIS                CNVDIIS         .... on
   Start iteration      DIISMaxIt       ....    12
   Startup error        DIISStart       ....  0.200000
   # of expansion vecs  DIISMaxEq       ....     5
   Bias factor          DIISBfac        ....   1.050
   Max. coefficient     DIISMaxC        ....  10.000
 MO-DIIS                CNVKDIIS        .... off
 Trust-Rad. Augm. Hess. CNVTRAH         .... auto
   Auto Start mean grad. ratio tolernc. ....  1.125000
   Auto Start start iteration           ....    50
   Auto Start num. interpolation iter.  ....    10
   Max. Number of Micro iterations      ....    24
   Max. Number of Macro iterations      .... Maxiter - #DIIS iter
   Number of Davidson start vectors     ....     2
   Converg. threshold    (grad. norm)   ....   1.000e-05
   Grad. Scal. Fac. for Micro threshold ....   0.100
   Minimum threshold for Micro iter.    ....   1.000e-02
   NR start threshold (gradient norm)   ....   1.000e-04
   Initial trust radius                 ....   0.400
   Minimum AH scaling param. (alpha)    ....   1.000
   Maximum AH scaling param. (alpha)    .... 1000.000
   Quad. conv. algorithm                .... NR
   White noise on init. David. guess    .... on
   Maximum white noise                  ....   0.010
   Pseudo random numbers                .... off
   Inactive MOs                         .... canonical
   Orbital update algorithm             .... Taylor
   Preconditioner                       .... Diag
   Full preconditioner red. dimension   ....   250
 SOSCF                 CNVSOSCF           .... on
   Start iteration     SOSCFMaxIt         ....   150
   Startup grad/error  SOSCFStart         ....  0.003300
   Hessian update      SOSCFHessUp        .... L-BFGS
   Autom. constraints  SOSCFAutoConstrain .... off
 Level Shifting         CNVShift        .... on
   Level shift para.    LevelShift      ....    0.2500
   Turn off err/grad.   ShiftErr        ....    0.0010
 Zerner damping         CNVZerner       .... off
 Static damping         CNVDamp         .... on
   Fraction old density DampFac         ....    0.7000
   Max. Damping (<1)    DampMax         ....    0.9800
   Min. Damping (>=0)   DampMin         ....    0.0000
   Turn off err/grad.   DampErr         ....    0.1000

SCF Procedure:
 Maximum # iterations   MaxIter         ....   300
 SCF integral mode      SCFMode         .... Direct
   Integral package                     .... SHARK and LIBINT hybrid scheme
 Reset frequency        DirectResetFreq ....    20
 Integral Threshold     Thresh          ....  1.000e-12 Eh
 Primitive CutOff       TCut            ....  1.000e-13 Eh

Convergence Tolerance:
 Convergence Check Mode ConvCheckMode   .... Total+1el-Energy
 Convergence forced     ConvForced      .... 1
 Energy Change          TolE            ....  1.000e-08 Eh
 1-El. energy change                    ....  1.000e-05 Eh
 Orbital Gradient       TolG            ....  1.000e-05
 Orbital Rotation angle TolX            ....  1.000e-05
 DIIS Error             TolErr          ....  5.000e-07

------------------------------
INITIAL GUESS: MODEL POTENTIAL
------------------------------
Loading Hartree-Fock densities                     ... done
Calculating cut-offs                               ... done
Initializing the effective Hamiltonian             ... done
Setting up the integral package (SHARK)            ... done
Starting the Coulomb interaction                   ... done (   0.9 sec)
Making the grid                                    ... done (   1.0 sec)
Mapping shells                                     ... done
Starting the XC term evaluation                    ... done (   1.0 sec)
  promolecular density results
     # of electrons  =    165.988362323
     EX              =   -133.897620289
     EC              =     -5.589061586
     EX+EC           =   -139.486681875
Transforming the Hamiltonian                       ... done (   0.0 sec)
Diagonalizing the Hamiltonian                      ... done (   0.0 sec)
Back transforming the eigenvectors                 ... done (   0.0 sec)
Now organizing SCF variables                       ... done
                      ------------------
                      INITIAL GUESS DONE (   3.1 sec)
                      ------------------
             **** ENERGY FILE WAS UPDATED (td.en.tmp) ****
Finished Guess after   3.4 sec
Maximum memory used throughout the entire GUESS-calculation: 30.8 MB


           ************************************************************
           *        Program running with 4 parallel MPI-processes     *
           *              working on a common directory               *
           ************************************************************

-------------------------------------------------------------------------------------------
                                      ORCA LEAN-SCF
                              memory conserving SCF solver
-------------------------------------------------------------------------------------------

----------------------------------------D-I-I-S--------------------------------------------
Iteration    Energy (Eh)           Delta-E    RMSDP     MaxDP     DIISErr   Damp  Time(sec)
-------------------------------------------------------------------------------------------
               ***  Starting incremental Fock matrix formation  ***
    1    -999.8847166847001517     0.00e+00  5.43e-02  1.72e+00  2.44e-01  0.700  29.4
    2    -1000.1531427196957793    -2.68e-01  5.13e-02  2.79e+00  9.04e-02  0.700  14.5
                               ***Turning on AO-DIIS***
    3    -1000.2580139061194586    -1.05e-01  2.23e-02  1.03e+00  3.43e-02  0.700  13.2
    4    -1000.3216687166652719    -6.37e-02  7.73e-02  3.99e+00  1.62e-02  0.000  13.4
    5    -1000.4605197989951648    -1.39e-01  1.83e-02  1.03e+00  5.81e-03  0.000  14.6
                              *** Initializing SOSCF ***
---------------------------------------S-O-S-C-F--------------------------------------
Iteration    Energy (Eh)           Delta-E    RMSDP     MaxDP     MaxGrad    Time(sec)
--------------------------------------------------------------------------------------
    6    -1000.4613192578574399    -7.99e-04  5.36e-03  2.98e-01  1.06e-03    15.1
               *** Restarting incremental Fock matrix formation ***
    7    -1000.4613283486280579    -9.09e-06  7.01e-03  2.08e-01  2.43e-04    27.9
    8    -1000.4613264682295721     1.88e-06  1.75e-03  5.71e-02  5.65e-04    21.7
    9    -1000.4613363643713910    -9.90e-06  1.91e-03  6.21e-02  1.01e-04    22.2
   10    -1000.4613364519120751    -8.75e-08  3.93e-04  1.44e-02  3.86e-05    21.7
   11    -1000.4613370405897967    -5.89e-07  4.02e-04  1.81e-02  1.14e-05    18.0
   12    -1000.4613370245876922     1.60e-08  1.29e-04  4.79e-03  2.09e-05    17.5
   13    -1000.4613370521799425    -2.76e-08  3.61e-04  1.25e-02  4.08e-06    17.5
   14    -1000.4613370543918336    -2.21e-09  2.00e-04  6.27e-03  5.26e-06    16.5
                 **** Energy Check signals convergence ****

               *****************************************************
               *                     SUCCESS                       *
               *           SCF CONVERGED AFTER  14 CYCLES          *
               *****************************************************

Recomputing exchange energy using gridx3       ... done (   48.185 sec)
Old exchange energy                            :    -27.217261638 Eh
New exchange energy                            :    -27.217310492 Eh
Exchange energy change after final integration :     -0.000048854 Eh
Total energy after final integration           :  -1000.461385923 Eh
             **** ENERGY FILE WAS UPDATED (td.en.tmp) ****

----------------
TOTAL SCF ENERGY
----------------

Total Energy       :      -1000.46138592269904 Eh          -27223.93835 eV

Components:
Nuclear Repulsion  :       1772.09637559393309 Eh           48221.19390 eV
Electronic Energy  :      -2772.55771266286683 Eh          -75445.13092 eV
One Electron Energy:      -4877.52855223682218 Eh         -132724.29948 eV
Two Electron Energy:       2104.97083957395535 Eh           57279.16856 eV

Virial components:
Potential Energy   :      -1994.66617612075561 Eh          -54277.62607 eV
Kinetic Energy     :        994.20479019805668 Eh           27053.68772 eV
Virial Ratio       :          2.00629306535869

DFT components:
N(Alpha)           :       82.999918858862 electrons
N(Beta)            :       82.999918858862 electrons
N(Total)           :      165.999837717724 electrons
E(X)               :     -108.086832936464 Eh       
E(C)               :       -6.584697941382 Eh       
E(XC)              :     -114.671530877846 Eh       

---------------
SCF CONVERGENCE
---------------

  Last Energy change         ...    2.2119e-09  Tolerance :   1.0000e-08
  Last MAX-Density change    ...    6.2675e-03  Tolerance :   1.0000e-07
  Last RMS-Density change    ...    1.9976e-04  Tolerance :   5.0000e-09
  Last DIIS Error            ...    1.0571e-03  Tolerance :   5.0000e-07
  Last Orbital Gradient      ...    5.2584e-06  Tolerance :   1.0000e-05
  Last Orbital Rotation      ...    7.3416e-06  Tolerance :   1.0000e-05


----------------
ORBITAL ENERGIES
----------------

  NO   OCC          E(Eh)            E(eV) 
   0   2.0000     -19.197157      -522.3812 
   1   2.0000     -19.144007      -520.9349 
   2   2.0000     -19.140526      -520.8402 
   3   2.0000     -10.283307      -279.8230 
   4   2.0000     -10.281182      -279.7652 
   5   2.0000     -10.266407      -279.3631 
   6   2.0000     -10.248692      -278.8811 
   7   2.0000     -10.208629      -277.7909 
   8   2.0000     -10.206279      -277.7270 
   9   2.0000     -10.203213      -277.6436 
  10   2.0000     -10.198503      -277.5154 
  11   2.0000     -10.198168      -277.5063 
  12   2.0000     -10.197294      -277.4825 
  13   2.0000     -10.196717      -277.4668 
  14   2.0000     -10.196320      -277.4560 
  15   2.0000     -10.195313      -277.4286 
  16   2.0000     -10.194174      -277.3976 
  17   2.0000     -10.193252      -277.3725 
  18   2.0000     -10.191433      -277.3230 
  19   2.0000     -10.191284      -277.3189 
  20   2.0000     -10.175485      -276.8890 
  21   2.0000     -10.175026      -276.8765 
  22   2.0000     -10.174912      -276.8734 
  23   2.0000      -1.089367       -29.6432 
  24   2.0000      -1.048411       -28.5287 
  25   2.0000      -1.042860       -28.3777 
  26   2.0000      -0.868633       -23.6367 
  27   2.0000      -0.864118       -23.5139 
  28   2.0000      -0.823707       -22.4142 
  29   2.0000      -0.788437       -21.4545 
  30   2.0000      -0.768538       -20.9130 
  31   2.0000      -0.759069       -20.6553 
  32   2.0000      -0.751945       -20.4615 
  33   2.0000      -0.742860       -20.2143 
  34   2.0000      -0.712866       -19.3981 
  35   2.0000      -0.690678       -18.7943 
  36   2.0000      -0.688901       -18.7460 
  37   2.0000      -0.643170       -17.5015 
  38   2.0000      -0.628450       -17.1010 
  39   2.0000      -0.617559       -16.8046 
  40   2.0000      -0.606493       -16.5035 
  41   2.0000      -0.572178       -15.5698 
  42   2.0000      -0.556317       -15.1381 
  43   2.0000      -0.550322       -14.9750 
  44   2.0000      -0.544805       -14.8249 
  45   2.0000      -0.511120       -13.9083 
  46   2.0000      -0.498022       -13.5519 
  47   2.0000      -0.484413       -13.1815 
  48   2.0000      -0.483821       -13.1654 
  49   2.0000      -0.475882       -12.9494 
  50   2.0000      -0.464636       -12.6434 
  51   2.0000      -0.457435       -12.4474 
  52   2.0000      -0.453153       -12.3309 
  53   2.0000      -0.445023       -12.1097 
  54   2.0000      -0.443899       -12.0791 
  55   2.0000      -0.438026       -11.9193 
  56   2.0000      -0.434705       -11.8289 
  57   2.0000      -0.428422       -11.6580 
  58   2.0000      -0.422918       -11.5082 
  59   2.0000      -0.420847       -11.4518 
  60   2.0000      -0.410977       -11.1833 
  61   2.0000      -0.402152       -10.9431 
  62   2.0000      -0.398779       -10.8513 
  63   2.0000      -0.396894       -10.8000 
  64   2.0000      -0.390309       -10.6208 
  65   2.0000      -0.382250       -10.4015 
  66   2.0000      -0.379135       -10.3168 
  67   2.0000      -0.373289       -10.1577 
  68   2.0000      -0.370899       -10.0927 
  69   2.0000      -0.369684       -10.0596 
  70   2.0000      -0.356659        -9.7052 
  71   2.0000      -0.355190        -9.6652 
  72   2.0000      -0.337410        -9.1814 
  73   2.0000      -0.335671        -9.1341 
  74   2.0000      -0.331786        -9.0283 
  75   2.0000      -0.329611        -8.9692 
  76   2.0000      -0.323067        -8.7911 
  77   2.0000      -0.267035        -7.2664 
  78   2.0000      -0.264893        -7.2081 
  79   2.0000      -0.259700        -7.0668 
  80   2.0000      -0.251976        -6.8566 
  81   2.0000      -0.251329        -6.8390 
  82   2.0000      -0.235958        -6.4207 
  83   0.0000      -0.073408        -1.9975 
  84   0.0000      -0.051894        -1.4121 
  85   0.0000      -0.018257        -0.4968 
  86   0.0000      -0.014210        -0.3867 
  87   0.0000       0.000018         0.0005 
  88   0.0000       0.002139         0.0582 
  89   0.0000       0.014878         0.4048 
  90   0.0000       0.022133         0.6023 
  91   0.0000       0.023404         0.6369 
  92   0.0000       0.024692         0.6719 
  93   0.0000       0.028410         0.7731 
*Only the first 10 virtual orbitals were printed.

                    ********************************
                    * MULLIKEN POPULATION ANALYSIS *
                    ********************************

-----------------------
MULLIKEN ATOMIC CHARGES
-----------------------
   0 C :   -0.514202
   1 C :    0.383495
   2 C :   -0.625926
   3 C :   -0.620231
   4 C :    0.082724
   5 C :   -0.966496
   6 C :   -0.204583
   7 C :    1.012855
   8 C :   -0.346738
   9 C :   -0.346369
  10 C :   -0.294363
  11 O :   -0.376322
  12 C :   -0.328536
  13 C :   -0.161173
  14 O :   -0.385707
  15 C :    1.137102
  16 C :   -0.107278
  17 C :   -0.161111
  18 C :    0.056630
  19 O :   -0.365885
  20 C :   -0.338552
  21 C :   -0.234623
  22 C :   -0.936044
  23 H :    0.219293
  24 H :    0.219085
  25 H :    0.211244
  26 H :    0.212228
  27 H :    0.209336
  28 H :    0.219281
  29 H :    0.220107
  30 H :    0.212965
  31 H :    0.208842
  32 H :    0.178043
  33 H :    0.216306
  34 H :    0.215070
  35 H :    0.179309
  36 H :    0.239394
  37 H :    0.241342
  38 H :    0.219974
  39 H :    0.194719
  40 H :    0.210648
  41 H :    0.208769
  42 H :    0.207184
  43 H :    0.182276
  44 H :    0.215917
Sum of atomic charges:    0.0000000

--------------------------------
MULLIKEN REDUCED ORBITAL CHARGES
--------------------------------
  0 C s       :     3.428456  s :     3.428456
      pz      :     1.043398  p :     3.051156
      px      :     1.065544
      py      :     0.942214
      dz2     :     0.011793  d :     0.034590
      dxz     :     0.003676
      dyz     :     0.003617
      dx2y2   :     0.007740
      dxy     :     0.007764

  1 C s       :     2.757219  s :     2.757219
      pz      :     0.969825  p :     2.810743
      px      :     0.916010
      py      :     0.924909
      dz2     :     0.011883  d :     0.048544
      dxz     :     0.007983
      dyz     :     0.008182
      dx2y2   :     0.010260
      dxy     :     0.010236

  2 C s       :     3.510148  s :     3.510148
      pz      :     1.081955  p :     3.081236
      px      :     1.029659
      py      :     0.969622
      dz2     :     0.010355  d :     0.034542
      dxz     :     0.003466
      dyz     :     0.005459
      dx2y2   :     0.009435
      dxy     :     0.005827

  3 C s       :     3.506068  s :     3.506068
      pz      :     0.905499  p :     3.079639
      px      :     1.085165
      py      :     1.088976
      dz2     :     0.007684  d :     0.034524
      dxz     :     0.006137
      dyz     :     0.007529
      dx2y2   :     0.006126
      dxy     :     0.007048

  4 C s       :     2.999319  s :     2.999319
      pz      :     1.006185  p :     2.877566
      px      :     1.006875
      py      :     0.864507
      dz2     :     0.006950  d :     0.040391
      dxz     :     0.007739
      dyz     :     0.006056
      dx2y2   :     0.009379
      dxy     :     0.010267

  5 C s       :     3.792829  s :     3.792829
      pz      :     1.024718  p :     3.138097
      px      :     1.064669
      py      :     1.048711
      dz2     :     0.003794  d :     0.035570
      dxz     :     0.007295
      dyz     :     0.006997
      dx2y2   :     0.008081
      dxy     :     0.009404

  6 C s       :     2.736905  s :     2.736905
      pz      :     1.155676  p :     3.431092
      px      :     1.187652
      py      :     1.087764
      dz2     :     0.005888  d :     0.036587
      dxz     :     0.007393
      dyz     :     0.005727
      dx2y2   :     0.007477
      dxy     :     0.010101

  7 C s       :     2.385461  s :     2.385461
      pz      :     1.096990  p :     2.563791
      px      :     0.891879
      py      :     0.574921
      dz2     :     0.006260  d :     0.037893
      dxz     :     0.006864
      dyz     :     0.006361
      dx2y2   :     0.009788
      dxy     :     0.008621

  8 C s       :     3.349120  s :     3.349120
      pz      :     0.930825  p :     2.961237
      px      :     1.094392
      py      :     0.936020
      dz2     :     0.003723  d :     0.036380
      dxz     :     0.007844
      dyz     :     0.006880
      dx2y2   :     0.008382
      dxy     :     0.009552

  9 C s       :     3.092933  s :     3.092933
      pz      :     0.962298  p :     3.217623
      px      :     1.143908
      py      :     1.111417
      dz2     :     0.005352  d :     0.035813
      dxz     :     0.007205
      dyz     :     0.005662
      dx2y2   :     0.007807
      dxy     :     0.009787

 10 C s       :     3.841326  s :     3.841326
      pz      :     0.812344  p :     2.362436
      px      :     0.808927
      py      :     0.741165
      dz2     :     0.014363  d :     0.090601
      dxz     :     0.017450
      dyz     :     0.015680
      dx2y2   :     0.024603
      dxy     :     0.018505

 11 O s       :     3.920420  s :     3.920420
      pz      :     1.319196  p :     4.429764
      px      :     1.633340
      py      :     1.477228
      dz2     :     0.007640  d :     0.026138
      dxz     :     0.004017
      dyz     :     0.005258
      dx2y2   :     0.004186
      dxy     :     0.005038

 12 C s       :     3.510451  s :     3.510451
      pz      :     0.895758  p :     2.783531
      px      :     0.963000
      py      :     0.924772
      dz2     :     0.007763  d :     0.034554
      dxz     :     0.009267
      dyz     :     0.003701
      dx2y2   :     0.004191
      dxy     :     0.009632

 13 C s       :     3.713824  s :     3.713824
      pz      :     0.698605  p :     2.356594
      px      :     0.811756
      py      :     0.846233
      dz2     :     0.030570  d :     0.090755
      dxz     :     0.021266
      dyz     :     0.014651
      dx2y2   :     0.011574
      dxy     :     0.012695

 14 O s       :     3.921638  s :     3.921638
      pz      :     1.474940  p :     4.438033
      px      :     1.575095
      py      :     1.387998
      dz2     :     0.006317  d :     0.026036
      dxz     :     0.006395
      dyz     :     0.006450
      dx2y2   :     0.004071
      dxy     :     0.002803

 15 C s       :     2.490217  s :     2.490217
      pz      :     0.534715  p :     2.335181
      px      :     0.718270
      py      :     1.082196
      dz2     :     0.010323  d :     0.037500
      dxz     :     0.009931
      dyz     :     0.007202
      dx2y2   :     0.004398
      dxy     :     0.005646

 16 C s       :     3.260654  s :     3.260654
      pz      :     0.937817  p :     2.809743
      px      :     0.935303
      py      :     0.936623
      dz2     :     0.008230  d :     0.036880
      dxz     :     0.010494
      dyz     :     0.007280
      dx2y2   :     0.005161
      dxy     :     0.005715

 17 C s       :     3.153192  s :     3.153192
      pz      :     1.049708  p :     2.973835
      px      :     0.944847
      py      :     0.979280
      dz2     :     0.008024  d :     0.034084
      dxz     :     0.010946
      dyz     :     0.005042
      dx2y2   :     0.005270
      dxy     :     0.004802

 18 C s       :     3.336091  s :     3.336091
      pz      :     1.050961  p :     2.534008
      px      :     0.662900
      py      :     0.820147
      dz2     :     0.014537  d :     0.073271
      dxz     :     0.017697
      dyz     :     0.011174
      dx2y2   :     0.015768
      dxy     :     0.014096

 19 O s       :     3.855818  s :     3.855818
      pz      :     1.539109  p :     4.480344
      px      :     1.356434
      py      :     1.584801
      dz2     :     0.005641  d :     0.029723
      dxz     :     0.007577
      dyz     :     0.005563
      dx2y2   :     0.005831
      dxy     :     0.005110

 20 C s       :     3.355455  s :     3.355455
      pz      :     0.923254  p :     2.924284
      px      :     0.995148
      py      :     1.005881
      dz2     :     0.007860  d :     0.058813
      dxz     :     0.014594
      dyz     :     0.017271
      dx2y2   :     0.006781
      dxy     :     0.012307

 21 C s       :     2.711590  s :     2.711590
      pz      :     0.948242  p :     3.489006
      px      :     1.306247
      py      :     1.234517
      dz2     :     0.007732  d :     0.034027
      dxz     :     0.010391
      dyz     :     0.006616
      dx2y2   :     0.004123
      dxy     :     0.005165

 22 C s       :     3.191283  s :     3.191283
      pz      :     1.188381  p :     3.707595
      px      :     1.336851
      py      :     1.182363
      dz2     :     0.009928  d :     0.037166
      dxz     :     0.010122
      dyz     :     0.004603
      dx2y2   :     0.006934
      dxy     :     0.005579

 23 H s       :     0.780707  s :     0.780707

 24 H s       :     0.780915  s :     0.780915

 25 H s       :     0.788756  s :     0.788756

 26 H s       :     0.787772  s :     0.787772

 27 H s       :     0.790664  s :     0.790664

 28 H s       :     0.780719  s :     0.780719

 29 H s       :     0.779893  s :     0.779893

 30 H s       :     0.787035  s :     0.787035

 31 H s       :     0.791158  s :     0.791158

 32 H s       :     0.821957  s :     0.821957

 33 H s       :     0.783694  s :     0.783694

 34 H s       :     0.784930  s :     0.784930

 35 H s       :     0.820691  s :     0.820691

 36 H s       :     0.760606  s :     0.760606

 37 H s       :     0.758658  s :     0.758658

 38 H s       :     0.780026  s :     0.780026

 39 H s       :     0.805281  s :     0.805281

 40 H s       :     0.789352  s :     0.789352

 41 H s       :     0.791231  s :     0.791231

 42 H s       :     0.792816  s :     0.792816

 43 H s       :     0.817724  s :     0.817724

 44 H s       :     0.784083  s :     0.784083



                     *******************************
                     * LOEWDIN POPULATION ANALYSIS *
                     *******************************

----------------------
LOEWDIN ATOMIC CHARGES
----------------------
   0 C :   -0.497531
   1 C :   -0.256060
   2 C :   -0.481235
   3 C :   -0.480740
   4 C :   -0.105511
   5 C :   -0.196611
   6 C :   -0.156249
   7 C :   -0.123895
   8 C :   -0.130052
   9 C :   -0.197809
  10 C :    0.128359
  11 O :   -0.333572
  12 C :   -0.329073
  13 C :    0.124543
  14 O :   -0.339448
  15 C :   -0.141412
  16 C :   -0.125566
  17 C :   -0.179171
  18 C :    0.058445
  19 O :   -0.378843
  20 C :   -0.250152
  21 C :   -0.231802
  22 C :   -0.145965
  23 H :    0.203702
  24 H :    0.203751
  25 H :    0.201543
  26 H :    0.202752
  27 H :    0.198992
  28 H :    0.207464
  29 H :    0.207841
  30 H :    0.203096
  31 H :    0.198825
  32 H :    0.221938
  33 H :    0.242349
  34 H :    0.238453
  35 H :    0.221906
  36 H :    0.237324
  37 H :    0.238257
  38 H :    0.240913
  39 H :    0.230164
  40 H :    0.204712
  41 H :    0.200015
  42 H :    0.199431
  43 H :    0.223406
  44 H :    0.242519

-------------------------------
LOEWDIN REDUCED ORBITAL CHARGES
-------------------------------
  0 C s       :     2.994920  s :     2.994920
      pz      :     1.158459  p :     3.435657
      px      :     1.158073
      py      :     1.119126
      dz2     :     0.021934  d :     0.066955
      dxz     :     0.006804
      dyz     :     0.007801
      dx2y2   :     0.015084
      dxy     :     0.015332

  1 C s       :     2.873735  s :     2.873735
      pz      :     1.098484  p :     3.270190
      px      :     1.070119
      py      :     1.101587
      dz2     :     0.029106  d :     0.112136
      dxz     :     0.016955
      dyz     :     0.018221
      dx2y2   :     0.023266
      dxy     :     0.024588

  2 C s       :     2.996852  s :     2.996852
      pz      :     1.165078  p :     3.417608
      px      :     1.132188
      py      :     1.120342
      dz2     :     0.019356  d :     0.066774
      dxz     :     0.006429
      dyz     :     0.010437
      dx2y2   :     0.017844
      dxy     :     0.012707

  3 C s       :     2.996564  s :     2.996564
      pz      :     1.086419  p :     3.417416
      px      :     1.162194
      py      :     1.168803
      dz2     :     0.017306  d :     0.066760
      dxz     :     0.011697
      dyz     :     0.014234
      dx2y2   :     0.010958
      dxy     :     0.012565

  4 C s       :     2.866944  s :     2.866944
      pz      :     1.008199  p :     3.140315
      px      :     1.069259
      py      :     1.062857
      dz2     :     0.014655  d :     0.098251
      dxz     :     0.018300
      dyz     :     0.016532
      dx2y2   :     0.023643
      dxy     :     0.025121

  5 C s       :     2.890955  s :     2.890955
      pz      :     1.050550  p :     3.221589
      px      :     1.100769
      py      :     1.070270
      dz2     :     0.008720  d :     0.084067
      dxz     :     0.016547
      dyz     :     0.014072
      dx2y2   :     0.020400
      dxy     :     0.024328

  6 C s       :     2.894741  s :     2.894741
      pz      :     1.012809  p :     3.176438
      px      :     1.092668
      py      :     1.070961
      dz2     :     0.012596  d :     0.085071
      dxz     :     0.018658
      dyz     :     0.012211
      dx2y2   :     0.018749
      dxy     :     0.022856

  7 C s       :     2.849031  s :     2.849031
      pz      :     1.045940  p :     3.176808
      px      :     1.047289
      py      :     1.083580
      dz2     :     0.013935  d :     0.098055
      dxz     :     0.017623
      dyz     :     0.017452
      dx2y2   :     0.025749
      dxy     :     0.023296

  8 C s       :     2.896239  s :     2.896239
      pz      :     1.014157  p :     3.149027
      px      :     1.079981
      py      :     1.054889
      dz2     :     0.008468  d :     0.084787
      dxz     :     0.017387
      dyz     :     0.013807
      dx2y2   :     0.021031
      dxy     :     0.024094

  9 C s       :     2.891120  s :     2.891120
      pz      :     1.044250  p :     3.222410
      px      :     1.101541
      py      :     1.076619
      dz2     :     0.011331  d :     0.084279
      dxz     :     0.018634
      dyz     :     0.012265
      dx2y2   :     0.019594
      dxy     :     0.022456

 10 C s       :     2.832805  s :     2.832805
      pz      :     0.851673  p :     2.829906
      px      :     1.011671
      py      :     0.966561
      dz2     :     0.027912  d :     0.208930
      dxz     :     0.042150
      dyz     :     0.038699
      dx2y2   :     0.059016
      dxy     :     0.041153

 11 O s       :     3.563397  s :     3.563397
      pz      :     1.421053  p :     4.713577
      px      :     1.706659
      py      :     1.585865
      dz2     :     0.010434  d :     0.056598
      dxz     :     0.010470
      dyz     :     0.015512
      dx2y2   :     0.009194
      dxy     :     0.010989

 12 C s       :     2.935211  s :     2.935211
      pz      :     1.090597  p :     3.320718
      px      :     1.128204
      py      :     1.101917
      dz2     :     0.017256  d :     0.073143
      dxz     :     0.019589
      dyz     :     0.007971
      dx2y2   :     0.008308
      dxy     :     0.020020

 13 C s       :     2.831097  s :     2.831097
      pz      :     1.032371  p :     2.835024
      px      :     0.976473
      py      :     0.826180
      dz2     :     0.074434  d :     0.209336
      dxz     :     0.048265
      dyz     :     0.032536
      dx2y2   :     0.023376
      dxy     :     0.030725

 14 O s       :     3.564236  s :     3.564236
      pz      :     1.623953  p :     4.718815
      px      :     1.649263
      py      :     1.445600
      dz2     :     0.014892  d :     0.056397
      dxz     :     0.015053
      dyz     :     0.013973
      dx2y2   :     0.005801
      dxy     :     0.006678

 15 C s       :     2.847093  s :     2.847093
      pz      :     1.105004  p :     3.196796
      px      :     1.048297
      py      :     1.043496
      dz2     :     0.029122  d :     0.097523
      dxz     :     0.027038
      dyz     :     0.017695
      dx2y2   :     0.009498
      dxy     :     0.014171

 16 C s       :     2.896742  s :     2.896742
      pz      :     1.101062  p :     3.143246
      px      :     1.059950
      py      :     0.982234
      dz2     :     0.020157  d :     0.085578
      dxz     :     0.025761
      dyz     :     0.015219
      dx2y2   :     0.011266
      dxy     :     0.013175

 17 C s       :     2.893877  s :     2.893877
      pz      :     1.088466  p :     3.204261
      px      :     1.077593
      py      :     1.038201
      dz2     :     0.018763  d :     0.081033
      dxz     :     0.025985
      dyz     :     0.011962
      dx2y2   :     0.011520
      dxy     :     0.012802

 18 C s       :     2.813121  s :     2.813121
      pz      :     1.113303  p :     2.954996
      px      :     0.915433
      py      :     0.926259
      dz2     :     0.036058  d :     0.173438
      dxz     :     0.045852
      dyz     :     0.025727
      dx2y2   :     0.033635
      dxy     :     0.032166

 19 O s       :     3.481043  s :     3.481043
      pz      :     1.661267  p :     4.826738
      px      :     1.498917
      py      :     1.666554
      dz2     :     0.012310  d :     0.071063
      dxz     :     0.017950
      dyz     :     0.011825
      dx2y2   :     0.014082
      dxy     :     0.014896

 20 C s       :     2.961644  s :     2.961644
      pz      :     1.011976  p :     3.171921
      px      :     1.078654
      py      :     1.081290
      dz2     :     0.016532  d :     0.116588
      dxz     :     0.029523
      dyz     :     0.035061
      dx2y2   :     0.012668
      dxy     :     0.022805

 21 C s       :     2.888794  s :     2.888794
      pz      :     1.078345  p :     3.261875
      px      :     1.098947
      py      :     1.084583
      dz2     :     0.020044  d :     0.081133
      dxz     :     0.026128
      dyz     :     0.013795
      dx2y2   :     0.009154
      dxy     :     0.012011

 22 C s       :     2.895565  s :     2.895565
      pz      :     1.113961  p :     3.164238
      px      :     1.063805
      py      :     0.986473
      dz2     :     0.022109  d :     0.086161
      dxz     :     0.023643
      dyz     :     0.010664
      dx2y2   :     0.015217
      dxy     :     0.014529

 23 H s       :     0.796298  s :     0.796298

 24 H s       :     0.796249  s :     0.796249

 25 H s       :     0.798457  s :     0.798457

 26 H s       :     0.797248  s :     0.797248

 27 H s       :     0.801008  s :     0.801008

 28 H s       :     0.792536  s :     0.792536

 29 H s       :     0.792159  s :     0.792159

 30 H s       :     0.796904  s :     0.796904

 31 H s       :     0.801175  s :     0.801175

 32 H s       :     0.778062  s :     0.778062

 33 H s       :     0.757651  s :     0.757651

 34 H s       :     0.761547  s :     0.761547

 35 H s       :     0.778094  s :     0.778094

 36 H s       :     0.762676  s :     0.762676

 37 H s       :     0.761743  s :     0.761743

 38 H s       :     0.759087  s :     0.759087

 39 H s       :     0.769836  s :     0.769836

 40 H s       :     0.795288  s :     0.795288

 41 H s       :     0.799985  s :     0.799985

 42 H s       :     0.800569  s :     0.800569

 43 H s       :     0.776594  s :     0.776594

 44 H s       :     0.757481  s :     0.757481



                      *****************************
                      * MAYER POPULATION ANALYSIS *
                      *****************************

  NA   - Mulliken gross atomic population
  ZA   - Total nuclear charge
  QA   - Mulliken gross atomic charge
  VA   - Mayer's total valence
  BVA  - Mayer's bonded valence
  FA   - Mayer's free valence

  ATOM       NA         ZA         QA         VA         BVA        FA
  0 C      6.5142     6.0000    -0.5142     3.0596     3.0596     0.0000
  1 C      5.6165     6.0000     0.3835     2.9034     2.9034     0.0000
  2 C      6.6259     6.0000    -0.6259     3.3924     3.3924     0.0000
  3 C      6.6202     6.0000    -0.6202     3.3942     3.3942     0.0000
  4 C      5.9173     6.0000     0.0827     3.6319     3.6319    -0.0000
  5 C      6.9665     6.0000    -0.9665     3.7243     3.7243    -0.0000
  6 C      6.2046     6.0000    -0.2046     4.1406     4.1406     0.0000
  7 C      4.9871     6.0000     1.0129     0.2601     0.2601    -0.0000
  8 C      6.3467     6.0000    -0.3467     2.9119     2.9119     0.0000
  9 C      6.3464     6.0000    -0.3464     4.4377     4.4377    -0.0000
 10 C      6.2944     6.0000    -0.2944     4.2757     4.2757    -0.0000
 11 O      8.3763     8.0000    -0.3763     1.8171     1.8171     0.0000
 12 C      6.3285     6.0000    -0.3285     2.1151     2.1151     0.0000
 13 C      6.1612     6.0000    -0.1612     4.0340     4.0340    -0.0000
 14 O      8.3857     8.0000    -0.3857     1.8200     1.8200     0.0000
 15 C      4.8629     6.0000     1.1371     0.6500     0.6500     0.0000
 16 C      6.1073     6.0000    -0.1073     2.9118     2.9118    -0.0000
 17 C      6.1611     6.0000    -0.1611     3.3228     3.3228     0.0000
 18 C      5.9434     6.0000     0.0566     4.0646     4.0646    -0.0000
 19 O      8.3659     8.0000    -0.3659     1.6272     1.6272    -0.0000
 20 C      6.3386     6.0000    -0.3386     3.5088     3.5088    -0.0000
 21 C      6.2346     6.0000    -0.2346     4.3840     4.3840     0.0000
 22 C      6.9360     6.0000    -0.9360     6.5849     6.5849     0.0000
 23 H      0.7807     1.0000     0.2193     0.8999     0.8999     0.0000
 24 H      0.7809     1.0000     0.2191     0.9002     0.9002     0.0000
 25 H      0.7888     1.0000     0.2112     0.9072     0.9072     0.0000
 26 H      0.7878     1.0000     0.2122     0.9041     0.9041     0.0000
 27 H      0.7907     1.0000     0.2093     0.9060     0.9060     0.0000
 28 H      0.7807     1.0000     0.2193     0.9028     0.9028     0.0000
 29 H      0.7799     1.0000     0.2201     0.9027     0.9027    -0.0000
[...]
  0-1A  ->  4-1A    4.412345   35588.0   281.0   0.054264822   0.50199   0.62813  -0.31239  -0.09928
  0-1A  ->  5-1A    4.516635   36429.1   274.5   0.170481553   1.54065  -1.22560  -0.01241  -0.19596
  0-1A  ->  6-1A    4.554023   36730.7   272.3   0.008917088   0.07992  -0.27031  -0.04611  -0.06876
  0-1A  ->  7-1A    4.569623   36856.5   271.3   0.016174317   0.14447   0.31496   0.03835   0.20929
  0-1A  ->  8-1A    4.762568   38412.7   260.3   0.457985581   3.92512   1.89716   0.51699  -0.24207
  0-1A  ->  9-1A    5.003229   40353.8   247.8   0.031352152   0.25578  -0.10608   0.49449  -0.00201
  0-1A  -> 10-1A    5.020534   40493.3   247.0   0.001880845   0.01529  -0.10330  -0.03257   0.05967
  0-1A  -> 11-1A    5.064169   40845.3   244.8   0.039472197   0.31814  -0.08676   0.55731  -0.00520
  0-1A  -> 12-1A    5.227756   42164.7   237.2   0.228093423   1.78090  -1.24110   0.05717  -0.48712
  0-1A  -> 13-1A    5.566358   44895.7   222.7   0.000010010   0.00007   0.00430  -0.00383   0.00634
  0-1A  -> 14-1A    5.604163   45200.6   221.2   0.000766756   0.00558   0.00111   0.07261   0.01764
  0-1A  -> 15-1A    5.698690   45963.0   217.6   0.000281749   0.00202   0.03514  -0.02014   0.01944
  0-1A  -> 16-1A    5.738264   46282.2   216.1   0.016025675   0.11399  -0.22274   0.20532   0.14907
  0-1A  -> 17-1A    5.810103   46861.6   213.4   0.125333571   0.88049  -0.01038   0.12618   0.92977
  0-1A  -> 18-1A    5.917578   47728.5   209.5   0.001506886   0.01039  -0.06810  -0.03525  -0.06719
  0-1A  -> 19-1A    6.037752   48697.8   205.3   0.002015445   0.01363   0.04206   0.01577  -0.10774
  0-1A  -> 20-1A    6.049993   48796.5   204.9   0.000259941   0.00175   0.02174  -0.01537  -0.03232
  0-1A  -> 21-1A    6.093081   49144.0   203.5   0.000820804   0.00550   0.00600  -0.06187  -0.04043
  0-1A  -> 22-1A    6.131002   49449.9   202.2   0.000188168   0.00125   0.00861  -0.03214   0.01208

----------------------------------------------------------------------------------------------------
                     ABSORPTION SPECTRUM VIA TRANSITION VELOCITY DIPOLE MOMENTS    
----------------------------------------------------------------------------------------------------
     Transition      Energy     Energy  Wavelength fosc(P2)      P2        PX        PY        PZ   
                      (eV)      (cm-1)    (nm)                 (au**2)    (au)      (au)      (au)  
----------------------------------------------------------------------------------------------------
  0-1A  ->  1-1A    3.637285   29336.7   340.9   0.022106155   0.00443  -0.06612  -0.00747  -0.00218
  0-1A  ->  2-1A    3.884330   31329.2   319.2   0.001544598   0.00033  -0.00960   0.01098  -0.01087
  0-1A  ->  3-1A    4.013294   32369.4   308.9   0.019608038   0.00434  -0.06351   0.00249   0.01725
  0-1A  ->  4-1A    4.412345   35588.0   281.0   0.017841518   0.00434  -0.06272  -0.01576  -0.01256
  0-1A  ->  5-1A    4.516635   36429.1   274.5   0.063313571   0.01576   0.12028  -0.03260  -0.01530
  0-1A  ->  6-1A    4.554023   36730.7   272.3   0.002808202   0.00070   0.02477   0.00232  -0.00927
  0-1A  ->  7-1A    4.569623   36856.5   271.3   0.003556879   0.00090  -0.02317   0.01541   0.01103
  0-1A  ->  8-1A    4.762568   38412.7   260.3   0.143446571   0.03766  -0.19249  -0.01041   0.02229
  0-1A  ->  9-1A    5.003229   40353.8   247.8   0.005334313   0.00147   0.03396  -0.00556   0.01694
  0-1A  -> 10-1A    5.020534   40493.3   247.0   0.000308127   0.00009   0.00174  -0.00132   0.00897
  0-1A  -> 11-1A    5.064169   40845.3   244.8   0.010115596   0.00282   0.04630  -0.01479   0.02147
  0-1A  -> 12-1A    5.227756   42164.7   237.2   0.054163518   0.01561   0.11950  -0.03452  -0.01170
  0-1A  -> 13-1A    5.566358   44895.7   222.7   0.000074297   0.00002   0.00072   0.00301  -0.00363
  0-1A  -> 14-1A    5.604163   45200.6   221.2   0.000100119   0.00003   0.00464  -0.00026   0.00306
  0-1A  -> 15-1A    5.698690   45963.0   217.6   0.000192995   0.00006  -0.00531   0.00533  -0.00200
  0-1A  -> 16-1A    5.738264   46282.2   216.1   0.008406419   0.00266   0.03838  -0.02968   0.01747
  0-1A  -> 17-1A    5.810103   46861.6   213.4   0.006082123   0.00195   0.01745   0.01799   0.03633
  0-1A  -> 18-1A    5.917578   47728.5   209.5   0.000326466   0.00011   0.00918   0.00089  -0.00463
  0-1A  -> 19-1A    6.037752   48697.8   205.3   0.000334792   0.00011  -0.00873  -0.00434   0.00404
  0-1A  -> 20-1A    6.049993   48796.5   204.9   0.000137577   0.00005  -0.00323   0.00586  -0.00107
  0-1A  -> 21-1A    6.093081   49144.0   203.5   0.000031153   0.00001  -0.00038   0.00313   0.00072
  0-1A  -> 22-1A    6.131002   49449.9   202.2   0.000149821   0.00005  -0.00251   0.00417  -0.00519

------------------------------------------------------------------------------------------
                     CD SPECTRUM VIA TRANSITION ELECTRIC DIPOLE MOMENTS    
------------------------------------------------------------------------------------------
     Transition      Energy     Energy  Wavelength    R        MX        MY        MZ   
                      (eV)      (cm-1)    (nm)   (1e40*cgs)   (au)      (au)      (au)  
------------------------------------------------------------------------------------------
  0-1A  ->  1-1A    3.637285   29336.7   340.9   20.44172  -0.28077  -0.30453  -0.41424
  0-1A  ->  2-1A    3.884330   31329.2   319.2    0.54152  -0.03397  -0.01539  -0.06089
  0-1A  ->  3-1A    4.013294   32369.4   308.9   12.88474  -0.06287   0.06989  -0.10376
  0-1A  ->  4-1A    4.412345   35588.0   281.0  -23.26398   0.04148  -0.04433  -0.09510
  0-1A  ->  5-1A    4.516635   36429.1   274.5   48.71604   0.08191   0.24244  -0.00030
  0-1A  ->  6-1A    4.554023   36730.7   272.3   10.42064   0.09213  -0.13905   0.05250
  0-1A  ->  7-1A    4.569623   36856.5   271.3   20.70957  -0.12168   0.04987  -0.03591
  0-1A  ->  8-1A    4.762568   38412.7   260.3   87.24133  -0.14657   0.02886  -0.32260
  0-1A  ->  9-1A    5.003229   40353.8   247.8  -37.83422  -0.03764   0.15396  -0.06345
  0-1A  -> 10-1A    5.020534   40493.3   247.0   -0.42381   0.06127  -0.13065   0.04983
  0-1A  -> 11-1A    5.064169   40845.3   244.8  -46.60673   0.00679   0.17712  -0.14221
  0-1A  -> 12-1A    5.227756   42164.7   237.2   52.17277   0.07863   0.29594   0.06156
  0-1A  -> 13-1A    5.566358   44895.7   222.7   -0.14530  -0.00720  -0.03563   0.03196
  0-1A  -> 14-1A    5.604163   45200.6   221.2    0.07753  -0.01336  -0.00825   0.02549
  0-1A  -> 15-1A    5.698690   45963.0   217.6   -1.04734   0.02651  -0.03200   0.03321
  0-1A  -> 16-1A    5.738264   46282.2   216.1   23.44811   0.01292  -0.06443  -0.22560
  0-1A  -> 17-1A    5.810103   46861.6   213.4  -40.63595  -0.04537   0.00763   0.09116
  0-1A  -> 18-1A    5.917578   47728.5   209.5    0.70185  -0.00759   0.04155   0.00805
  0-1A  -> 19-1A    6.037752   48697.8   205.3    1.06991  -0.01298   0.04494   0.02257
  0-1A  -> 20-1A    6.049993   48796.5   204.9    0.02328  -0.04130   0.03171  -0.04133
  0-1A  -> 21-1A    6.093081   49144.0   203.5    2.01331  -0.01295   0.00148   0.10146
  0-1A  -> 22-1A    6.131002   49449.9   202.2    0.48687   0.03709   0.04016  -0.00509

------------------------------------------------------------------------------------------
                     CD SPECTRUM VIA TRANSITION VELOCITY DIPOLE MOMENTS    
------------------------------------------------------------------------------------------
     Transition      Energy     Energy  Wavelength    R        MX        MY        MZ   
                      (eV)      (cm-1)    (nm)   (1e40*cgs)   (au)      (au)      (au)  
------------------------------------------------------------------------------------------
  0-1A  ->  1-1A    3.637285   29336.7   340.9   76.68876  -0.28077  -0.30453  -0.41424
  0-1A  ->  2-1A    3.884330   31329.2   319.2    2.70457  -0.03397  -0.01539  -0.06089
  0-1A  ->  3-1A    4.013294   32369.4   308.9    7.59924  -0.06287   0.06989  -0.10376
  0-1A  ->  4-1A    4.412345   35588.0   281.0   -2.05918   0.04148  -0.04433  -0.09510
  0-1A  ->  5-1A    4.516635   36429.1   274.5    5.54651   0.08191   0.24244  -0.00030
  0-1A  ->  6-1A    4.554023   36730.7   272.3    4.14813   0.09213  -0.13905   0.05250
  0-1A  ->  7-1A    4.569623   36856.5   271.3    8.96035  -0.12168   0.04987  -0.03591
  0-1A  ->  8-1A    4.762568   38412.7   260.3   55.81658  -0.14657   0.02886  -0.32260
  0-1A  ->  9-1A    5.003229   40353.8   247.8   -8.22752  -0.03764   0.15396  -0.06345
  0-1A  -> 10-1A    5.020534   40493.3   247.0    1.85551   0.06127  -0.13065   0.04983
  0-1A  -> 11-1A    5.064169   40845.3   244.8  -13.57505   0.00679   0.17712  -0.14221
  0-1A  -> 12-1A    5.227756   42164.7   237.2   -3.78157   0.07863   0.29594   0.06156
  0-1A  -> 13-1A    5.566358   44895.7   222.7   -0.52698  -0.00720  -0.03563   0.03196
  0-1A  -> 14-1A    5.604163   45200.6   221.2    0.04146  -0.01336  -0.00825   0.02549
  0-1A  -> 15-1A    5.698690   45963.0   217.6   -0.85051   0.02651  -0.03200   0.03321
  0-1A  -> 16-1A    5.738264   46282.2   216.1   -3.42570   0.01292  -0.06443  -0.22560
  0-1A  -> 17-1A    5.810103   46861.6   213.4    5.86808  -0.04537   0.00763   0.09116
  0-1A  -> 18-1A    5.917578   47728.5   209.5   -0.15171  -0.00759   0.04155   0.00805
  0-1A  -> 19-1A    6.037752   48697.8   205.3    0.02029  -0.01298   0.04494   0.02257
  0-1A  -> 20-1A    6.049993   48796.5   204.9    0.77038  -0.04130   0.03171  -0.04133
  0-1A  -> 21-1A    6.093081   49144.0   203.5    0.17358  -0.01295   0.00148   0.10146
  0-1A  -> 22-1A    6.131002   49449.9   202.2    0.21117   0.03709   0.04016  -0.00509

Total run time:      374.562 sec

           *** ORCA-CIS/TD-DFT FINISHED WITHOUT ERROR ***
-----------------------
CIS/TD-DFT TOTAL ENERGY
-----------------------

    E(SCF)  =  -1000.461385923 Eh
    DE(CIS) =      0.133667775 Eh (Root  1)
    ----------------------------- ---------
    E(tot)  =  -1000.327718148 Eh


Maximum memory used throughout the entire CIS-calculation: 905.8 MB
=> NOW LEAVING ORCA_CIS

-------------------------   --------------------
FINAL SINGLE POINT ENERGY     -1000.327718148068
-------------------------   --------------------



           ************************************************************
           *        Program running with 4 parallel MPI-processes     *
           *              working on a common directory               *
           ************************************************************

------------------------------------------------------------------------------
                              ORCA PROPERTY CALCULATIONS
------------------------------------------------------------------------------

GBWName                                 ... td.gbw
Number of atoms                         ...     45
Number of basis functions               ...    458
Max core memory                         ...   2500 MB

Electric properties:
Dipole moment                           ... YES
Quadrupole moment                       ...  NO
Static polarizability (Dipole/Dipole)   ...  NO
Static polarizability (Dipole/Quad.)    ...  NO
Static polarizability (Quad./Quad.)     ...  NO
Static polarizability (Velocity)        ...  NO
Static hyperpolarizability              ...  NO

Atomic electric properties:
Dipole moment                           ...  NO
Quadrupole moment                       ...  NO
Static polarizability                   ...  NO

Choice of electric origin               ... Center of mass
Position of electric origin             ...     1.161919    -0.316041     0.223549

General magnetic properties:
Magnetizability                         ...  NO

EPR properties:
g-Tensor (aka g-matrix)                 ...  NO
Zero-Field splitting spin-orbit         ...  NO
Zero-field splitting spin-spin          ...  NO
Hyperfine couplings                     ...  NO (   0 nuclei)
Quadrupole couplings                    ...  NO (   0 nuclei)
Contact density                         ...  NO (   0 nuclei)

NMR properties:
Chemical shifts                         ...  NO (   0 nuclei)
Spin-rotation constants                 ...  NO (   0 nuclei)
Spin-spin couplings                     ...  NO (   0 nuclei,    0 pairs)

Choice of magnetic origin               ... GIAO
Position of magnetic origin             ...     0.000000     0.000000     0.000000

Properties with geometric perturbations:
SCF Hessian                             ...  NO
IR spectrum                             ...  NO
VCD spectrum                            ...  NO
X-ray spectroscopy properties:
SCF XES/XAS/RIXS spectra                ...  NO

SCF SOC stabilization energy            ...  NO
Diagonal Born-Oppenheimer correction    ...  NO

-------------
DIPOLE MOMENT
-------------

Method             : SCF
Type of density    : Electron Density
Multiplicity       :   1
Irrep              :   0
Energy             : -1000.4613859226990371 Eh
Basis              : AO
                                X                 Y                 Z
Electronic contribution:     25.872964346      -6.909290922       1.980303990
Nuclear contribution   :    -25.672005244       7.454069920      -1.737094616
                        -----------------------------------------
Total Dipole Moment    :      0.200959102       0.544778997       0.243209374
                        -----------------------------------------
Magnitude (a.u.)       :      0.629539130
Magnitude (Debye)      :      1.600161302



--------------------
Rotational spectrum 
--------------------
 
Rotational constants in cm-1:             0.020626             0.003013             0.002967 
Rotational constants in MHz :           618.348684            90.338154            88.963233 

Dipole components along the rotational axes: 
x,y,z [a.u.] :    -0.177273     0.534446     0.281534 
x,y,z [Debye]:    -0.450591     1.358454     0.715602 

 

Dipole moment calculation done in   0.0 sec 

Maximum memory used throughout the entire PROP-calculation: 31.9 MB

--------------------------------
SUGGESTED CITATIONS FOR THIS RUN
--------------------------------

Below you find a list of papers that are relevant to this ORCA run
We neither can nor want to force you to cite these papers, but we appreciate if you do
You receive ORCA, which is the product of decades of hard work by many enthusiastic individuals, for free
The only thing we kindly ask in return is that you cite our papers,
We deeply appreciate it, if you show your appreciation for ORCA by not just citing the generic ORCA reference.

Please note that relegating all ORCA citations to the supporting information does *not* help us.
SI sections are not indexed - citations you put there will not count into any citation statistics
But we need these citations in order to attract the funding resources that allow us to do what we are doing

Therefore, if you are a happy ORCA user, please consider citing a few of the papers listed below in the main body of your paper

In addition to the list printed below, the program has created the file td.bibtex that contains the list in bibtex format
You can import this file easily into all common literature databanks and citation aid programs

It goes without saying that in many instances, there are alternative algorithms to achieve similar
results as the ones you have gotten from ORCA. It is, of course, also the case that in some instances
ORCA just re-implements algorithms worked out by others. We are fully aware of that and we are also
fully appreciative of our colleagues work. Hence this citation list should not be read as indicating
that the listed papers, which are focused on our own work, are the only ones worth citing. It simply
meant to make it easier for users to cite ORCA specific papers. It is not a substitute for doing your
own literature research and citing the relevant literature in a scientifically appropriate manner.

List of essential papers. We consider these as the minimum necessary citations

  1. Neese, F.
     Software update: the ORCA program system, version 6.0
     WIRES Comput. Molec. Sci. 2025 15(1), e70019
     doi.org/10.1002/wcms.70019

List of papers to cite with high priority. The work reported in these papers was absolutely
necessary for this run to complete.
Our perspective: the developers of density functionals and basis sets usually get cited in chemistry papers
Good! But without the algorithms to do something with them, the functionals or basis sets would not do anything.
Hence, in our opinion, the algorithm design and method developments papers are equally worthy of getting cited

  1. Neese, F.; Olbrich, G.
     Efficient use of the resolution of the identity approximation in time-dependent density functional calculations with hybrid density functionals
     Chem. Phys. Lett. 2002 362 , 170-178
     doi.org/10.1016/s0009-2614(02)01053-9
  2. Neese, F.
     An improvement of the resolution of the identity approximation for the formation of the Coulomb matrix
     J. Comp. Chem. 2003 24(14), 1740-1747
     doi.org/10.1002/jcc.10318
  3. Neese, F.; Wennmohs, F.; Hansen, A.; Becker, U.
     Efficient, approximate and parallel Hartree-Fock and hybrid DFT calculations. A 'chain-of-spheres' algorithm for the Hartree-Fock exchange
     Chem. Phys. 2009 356(1-3), 98-109
     doi.org/10.1016/j.chemphys.2008.10.036
  4. Helmich-Paris, B.; de Souza, B.; Neese, F.; Izsák, R.
     An improved chain of spheres for exchange algorithm
     J. Chem. Phys. 2021 155(10), 104109
     doi.org/10.1063/5.0058766
  5. Neese, F.
     The SHARK Integral Generation and Digestion System
     J. Comp. Chem. 2022 44(3), 381
     doi.org/10.1002/jcc.26942

List of suggested additional citations. These are papers that are important in the 'surrounding' of 
of this run, or papers that preceded the highly important papers. If you like your results we are grateful for a citation.

  1. Izsak, R.; Neese, F.
     An overlap fitted chain of spheres exchange method
     J. Chem. Phys. 2011 135 , 144105
     doi.org/10.1063/1.3646921
  2. Izsak, R.; Hansen, A.; Neese, F.
     The resolution of identity and chain of spheres approximations for the LPNO-CCSD singles Fock term
     Molec. Phys. 2012 110 , 2413-2417
     doi.org/10.1080/00268976.2012.687466
  3. Neese, F.
     The ORCA program system
     WIRES Comput. Molec. Sci. 2012 2(1), 73-78
     doi.org/10.1002/wcms.81
  4. Izsak, R.; Neese, F.; Klopper, W.
     Robust fitting techniques in the chain of spheres approximation to the Fock exchange: The role of the complementary space
     J. Chem. Phys. 2013 139 , 
     doi.org/10.1063/1.4819264
  5. Neese, F.
     Software update: the ORCA program system, version 4.0
     WIRES Comput. Molec. Sci. 2018 8(1), 1-6
     doi.org/10.1002/wcms.1327
  6. Neese, F.; Wennmohs, F.; Becker, U.; Riplinger, C.
     The ORCA quantum chemistry program package
     J. Chem. Phys. 2020 152(22), 224108
     doi.org/10.1063/5.0004608
  7. Neese, F.
     Software update: The ORCA program system—Version 5.0
     WIRES Comput. Molec. Sci. 2022 12(1), e1606
     doi.org/10.1002/wcms.1606

List of optional additional citations

  1. Neese, F.
     Approximate second-order SCF convergence for spin unrestricted wavefunctions
     Chem. Phys. Lett. 2000 325(1-3), 93-98
     doi.org/10.1016/s0009-2614(00)00662-x

Timings for individual modules:

Sum of individual times          ...      712.378 sec (=  11.873 min)
Startup calculation              ...        6.288 sec (=   0.105 min)   0.9 %
SCF iterations                   ...      330.446 sec (=   5.507 min)  46.4 %
Property integrals               ...        0.502 sec (=   0.008 min)   0.1 %
Property calculations            ...        0.334 sec (=   0.006 min)   0.0 %
CIS module                       ...      374.808 sec (=   6.247 min)  52.6 %
                             ****ORCA TERMINATED NORMALLY****
TOTAL RUN TIME: 0 days 0 hours 11 minutes 53 seconds 87 msec
