      -----------------------------------------------------------      
     |                   =====================                   |     
     |                           x T B                           |     
     |                   =====================                   |     
     |                         S. Grimme                         |     
     |          Mulliken Center for Theoretical Chemistry        |     
     |                    University of Bonn                     |     
      -----------------------------------------------------------      

   * xtb version 6.7.1 (edcfbbe) compiled by 'VssAdministrator@runnervm171ch' on 2026-06-10

   xtb is free software: you can redistribute it and/or modify it under
   the terms of the GNU Lesser General Public License as published by
   the Free Software Foundation, either version 3 of the License, or
   (at your option) any later version.
   
   xtb is distributed in the hope that it will be useful,
   but WITHOUT ANY WARRANTY; without even the implied warranty of
   MERCHANTABILITY or FITNESS FOR A PARTICULAR PURPOSE.  See the
   GNU Lesser General Public License for more details.
   
   Cite this work as:
   * C. Bannwarth, E. Caldeweyher, S. Ehlert, A. Hansen, P. Pracht,
     J. Seibert, S. Spicher, S. Grimme, WIREs Comput. Mol. Sci., 2020, 11,
     e01493. DOI: 10.1002/wcms.1493
   
   for GFN2-xTB:
   * C. Bannwarth, S. Ehlert and S. Grimme., J. Chem. Theory Comput., 2019,
     15, 1652-1671. DOI: 10.1021/acs.jctc.8b01176
   for GFN1-xTB:
   * S. Grimme, C. Bannwarth, P. Shushkov, J. Chem. Theory Comput., 2017,
     13, 1989-2009. DOI: 10.1021/acs.jctc.7b00118
   for GFN0-xTB:
   * P. Pracht, E. Caldeweyher, S. Ehlert, S. Grimme, ChemRxiv, 2019, preprint.
     DOI: 10.26434/chemrxiv.8326202.v1
   for GFN-FF:
   * S. Spicher and S. Grimme, Angew. Chem. Int. Ed., 2020, 59, 15665-15673.
     DOI: 10.1002/anie.202004239
   
   for ALPB and GBSA implicit solvation:
   * S. Ehlert, M. Stahn, S. Spicher, S. Grimme, J. Chem. Theory Comput.,
     2021, 17, 4250-4261. DOI: 10.1021/acs.jctc.1c00471
   
   for ddCOSMO and CPCM-X implicit solvation:
   * M. Stahn, S. Ehlert, S. Grimme, J. Phys. Chem. A,
     2023, XX, XXXX-XXXX. DOI: 10.1021/acs.jpca.3c04382
   
   for DFT-D4:
   * E. Caldeweyher, C. Bannwarth and S. Grimme, J. Chem. Phys., 2017,
     147, 034112. DOI: 10.1063/1.4993215
   * E. Caldeweyher, S. Ehlert, A. Hansen, H. Neugebauer, S. Spicher,
     C. Bannwarth and S. Grimme, J. Chem. Phys., 2019, 150, 154122.
     DOI: 10.1063/1.5090222
   * E. Caldeweyher, J.-M. Mewes, S. Ehlert and S. Grimme, Phys. Chem. Chem. Phys.
     2020, 22, 8499-8512. DOI: 10.1039/D0CP00502A
   
   for sTDA-xTB:
   * S. Grimme and C. Bannwarth, J. Chem. Phys., 2016, 145, 054103.
     DOI: 10.1063/1.4959605
   
   in the mass-spec context:
   * V. Asgeirsson, C. Bauer and S. Grimme, Chem. Sci., 2017, 8, 4879.
     DOI: 10.1039/c7sc00601b
   * J. Koopman and S. Grimme, ACS Omega 2019, 4, 12, 15120-15133.
     DOI: 10.1021/acsomega.9b02011
   
   for metadynamics refer to:
   * S. Grimme, J. Chem. Theory Comput., 2019, 155, 2847-2862
     DOI: 10.1021/acs.jctc.9b00143
   
   for SPH calculations refer to:
   * S. Spicher and S. Grimme, J. Chem. Theory Comput., 2021, 17, 1701-1714
     DOI: 10.1021/acs.jctc.0c01306
   
   for ONIOM refer to:
   * C. Plett, A. Katbashev, S. Ehlert, S. Grimme, M. Bursch,
     Phys. Chem. Chem. Phys., 2023, 25, 17860-17868. DOI: 10.1039/D3CP02178E
   
   for DIPRO refer to:
   * J. Kohn, N. Gildemeister, S. Grimme, D. Fazzi, A. Hansen,
     J. Chem. Phys., 2023, just accepted.
   
   for PTB refer to:
   * S. Grimme, M. Mueller, A. Hansen, J. Chem. Phys., 2023, 158, 124111.
     DOI: 10.1063/5.0137838
   
   with help from (in alphabetical order)
   P. Atkinson, C. Bannwarth, F. Bohle, G. Brandenburg, E. Caldeweyher
   M. Checinski, S. Dohm, S. Ehlert, S. Ehrlich, I. Gerasimov, C. Hölzer
   A. Katbashev, J. Kohn, J. Koopman, C. Lavigne, S. Lehtola, F. März, M. Müller,
   F. Musil, H. Neugebauer, J. Pisarek, C. Plett, P. Pracht, F. Pultar,
   J. Seibert, P. Shushkov, S. Spicher, M. Stahn, M. Steiner, T. Strunk,
   J. Stückrath, T. Rose, and J. Unsleber
   
 * started run on 2026/07/20 at 15:32:08.123     
   ID    Z sym.   atoms
    1    6 C      1-11, 13, 14, 16-19, 21-23
    2    8 O      12, 15, 20
    3    1 H      24-45

           -------------------------------------------------
          |                Calculation Setup                |
           -------------------------------------------------

          program call               : c:\Users\ysm04\Documents\etc\uv_vis\.mamba\envs\qc\Library\bin\xtb.exe in.xyz --gfn 2 --opt normal --alpb ethanol
          coordinate file            : in.xyz
          omp threads                :                     4


           -------------------------------------------------
          |                 G F N 2 - x T B                 |
           -------------------------------------------------

        Reference                      10.1021/acs.jctc.8b01176
      * Hamiltonian:
        H0-scaling (s, p, d)           1.850000    2.230000    2.230000
        zeta-weighting                 0.500000
      * Dispersion:
        s8                             2.700000
        a1                             0.520000
        a2                             5.000000
        s9                             5.000000
      * Repulsion:
        kExp                           1.500000    1.000000
        rExp                           1.000000
      * Coulomb:
        alpha                          2.000000
        third order                    shell-resolved
        anisotropic                    true
        a3                             3.000000
        a5                             4.000000
        cn-shift                       1.200000
        cn-exp                         4.000000
        max-rad                        5.000000

      * Solvation model:               ALPB
        Solvent                        ethanol
        Parameter file                 internal GFN2-xTB/ALPB
        Dielectric constant                2.5300E+01
        Reference state                gsolv [1 M gas/solution]
        Free energy shift                  3.4113E-03 Eh       2.1406E+00 kcal/mol
        Temperature                        2.9815E+02 K
        Density                            7.8930E-01 kg/L
        Solvent mass                       4.6070E+01 g/mol
        Interaction kernel             P16
        Born radius scaling (c1)           1.6245E+00
        Born radii integrator          GBOBC
        Born offset                        0.0000E+00 a0       0.0000E+00 AA
        H-bond correction              true
        Ion screening                  false
        Surface tension                    1.0000E-05 Eh       1.5569E+01 dyn/cm
        Grid points                               230 per atom

          ...................................................
          :                      SETUP                      :
          :.................................................:
          :  # basis functions                 114          :
          :  # atomic orbitals                 114          :
          :  # shells                           68          :
          :  # electrons                       120          :
          :  max. iterations                   250          :
          :  Hamiltonian                  GFN2-xTB          :
          :  restarted?                      false          :
          :  GBSA solvation                   true          :
          :  PC potential                    false          :
          :  electronic temp.          300.0000000     K    :
          :  accuracy                    1.0000000          :
          :  -> integral cutoff          0.2500000E+02      :
          :  -> integral neglect         0.1000000E-07      :
          :  -> SCF convergence          0.1000000E-05 Eh   :
          :  -> wf. convergence          0.1000000E-03 e    :
          :  Broyden damping             0.4000000          :
          :  net charge                          0          :
          :  unpaired electrons                  0          :
          ...................................................

 iter      E             dE          RMSdq      gap      omega  full diag
   1    -67.1216463 -0.671216E+02  0.444E+00    2.80       0.0  T
   2    -67.1882499 -0.666036E-01  0.249E+00    2.59       1.0  T
   3    -67.1790887  0.916127E-02  0.112E+00    2.86       1.0  T
   4    -67.1970418 -0.179531E-01  0.279E-01    2.66       1.0  T
   5    -67.1985494 -0.150761E-02  0.889E-02    2.66       1.0  T
   6    -67.1986830 -0.133617E-03  0.487E-02    2.67       1.0  T
   7    -67.1987010 -0.179608E-04  0.172E-02    2.67       1.0  T
   8    -67.1987043 -0.335471E-05  0.709E-03    2.67       2.1  T
   9    -67.1987052 -0.885894E-06  0.318E-03    2.67       4.7  T
  10    -67.1987053 -0.603307E-07  0.144E-03    2.67      10.3  T
  11    -67.1987053 -0.195769E-07  0.638E-04    2.67      23.4  T
  12    -67.1987053 -0.421247E-08  0.279E-04    2.67      53.4  T

   *** convergence criteria satisfied after 12 iterations ***

         #    Occupation            Energy/Eh            Energy/eV
      -------------------------------------------------------------
         1        2.0000           -0.7221441             -19.6505
       ...           ...                  ...                  ...
        54        2.0000           -0.4142330             -11.2719
        55        2.0000           -0.4130287             -11.2391
        56        2.0000           -0.4077396             -11.0952
        57        2.0000           -0.4022533             -10.9459
        58        2.0000           -0.3937700             -10.7150
        59        2.0000           -0.3907186             -10.6320
        60        2.0000           -0.3856074             -10.4929 (HOMO)
        61                         -0.2876292              -7.8268 (LUMO)
        62                         -0.2380106              -6.4766
        63                         -0.2373150              -6.4577
        64                         -0.2273608              -6.1868
        65                         -0.2064693              -5.6183
       ...                                ...                  ...
       114                          0.6676041              18.1664
      -------------------------------------------------------------
                  HL-Gap            0.0979782 Eh            2.6661 eV
             Fermi-level           -0.3366183 Eh           -9.1599 eV

 SCC (total)                   0 d,  0 h,  0 min,  0.107 sec
 SCC setup                      ...        0 min,  0.005 sec (  4.212%)
 Dispersion                     ...        0 min,  0.001 sec (  1.271%)
 classical contributions        ...        0 min,  0.000 sec (  0.344%)
 integral evaluation            ...        0 min,  0.005 sec (  4.508%)
 iterations                     ...        0 min,  0.079 sec ( 73.567%)
 molecular gradient             ...        0 min,  0.016 sec ( 14.597%)
 printout                       ...        0 min,  0.002 sec (  1.461%)

         :::::::::::::::::::::::::::::::::::::::::::::::::::::
         ::                     SUMMARY                     ::
         :::::::::::::::::::::::::::::::::::::::::::::::::::::
         :: total energy             -66.251795961627 Eh    ::
         :: total w/o Gsasa/hb       -66.228464592723 Eh    ::
         :: gradient norm              0.081290978897 Eh/a0 ::
         :: HOMO-LUMO gap              2.666121417000 eV    ::
         ::.................................................::
         :: SCC energy               -67.199014402840 Eh    ::
         :: -> isotropic ES            0.075936270428 Eh    ::
         :: -> anisotropic ES          0.005674516767 Eh    ::
         :: -> anisotropic XC          0.028823163778 Eh    ::
         :: -> dispersion             -0.043992391030 Eh    ::
         :: -> Gsolv                  -0.030201854585 Eh    ::
         ::    -> Gelec               -0.006870485681 Eh    ::
         ::    -> Gsasa               -0.023744929957 Eh    ::
         ::    -> Ghb                 -0.002997702581 Eh    ::
         ::    -> Gshift               0.003411263635 Eh    ::
         :: repulsion energy           0.947218441213 Eh    ::
         :: add. restraining           0.000000000000 Eh    ::
         :: total charge              -0.000000000000 e     ::
         :::::::::::::::::::::::::::::::::::::::::::::::::::::

      ----------------------------------------------------------- 
     |                   =====================                   |
     |                        A N C O P T                        |
     |                   =====================                   |
     |               Approximate Normal Coordinate               |
     |                Rational Function Optimizer                |
      ----------------------------------------------------------- 
      ----------------------------------------------------------- 
     |                   =====================                   |
     |                        A N C O P T                        |
     |                   =====================                   |
     |               Approximate Normal Coordinate               |
     |                Rational Function Optimizer                |
      ----------------------------------------------------------- 

          ...................................................
          :                      SETUP                      :
          :.................................................:
          :   optimization level            normal          :
          :   max. optcycles                   200          :
          :   ANC micro-cycles                  20          :
          :   degrees of freedom               129          :
          :.................................................:
          :   RF solver                   davidson          :
          :   write xtbopt.log                true          :
          :   linear?                        false          :
          :   energy convergence         0.5000000E-05 Eh   :
          :   grad. convergence          0.1000000E-02 Eh/α :
          :   maxmium RF displ.          1.0000000          :
          :   Hlow (freq-cutoff)         0.1000000E-01      :
          :   Hmax (freq-cutoff)         5.0000000          :
          :   S6 in model hess.         20.0000000          :
          ...................................................

generating ANC from exact Hessian ...
Using Lindh-Hessian (1995)
 Shifting diagonal of input Hessian by    9.7992833117776217E-003
 Lowest  eigenvalues of input Hessian
    0.000000    0.000000    0.000000    0.000000    0.000000    0.000000
    0.010000    0.010023    0.010374    0.010873    0.010957    0.011501
    0.013005    0.013462    0.014004    0.015025    0.015485    0.016216
 Highest eigenvalues
    1.871006    1.940699    1.958842    2.022436    2.045588    2.143325


........................................................................
.............................. CYCLE    1 ..............................
........................................................................

 iter      E             dE          RMSdq      gap      omega  full diag
   1    -67.1987053 -0.671987E+02  0.122E-04    2.67       0.0  T
   2    -67.1987053 -0.130896E-09  0.808E-05    2.67     184.4  T
   3    -67.1987053 -0.717222E-10  0.552E-05    2.67     269.9  T
     SCC iter.                  ...        0 min,  0.030 sec
     gradient                   ...        0 min,  0.016 sec
 * total energy  :   -66.2517960 Eh     change       -0.9842722E-09 Eh
   gradient norm :     0.0812927 Eh/α   predicted     0.0000000E+00 (-100.00%)
   displ. norm   :     0.2642241 α      lambda       -0.9390992E-02
   maximum displ.:     0.1062197 α      in ANC's #33, #15, #70, ...

........................................................................
.............................. CYCLE    2 ..............................
........................................................................

 iter      E             dE          RMSdq      gap      omega  full diag
   1    -67.2418947 -0.672419E+02  0.179E-01    2.64       0.0  T
   2    -67.2421776 -0.282941E-03  0.107E-01    2.65       1.0  T
   3    -67.2422818 -0.104197E-03  0.654E-02    2.66       1.0  T
   4    -67.2423310 -0.491294E-04  0.163E-02    2.66       1.0  T
   5    -67.2423331 -0.211463E-05  0.364E-03    2.66       4.1  T
   6    -67.2423335 -0.391516E-06  0.173E-03    2.66       8.6  T
   7    -67.2423335 -0.129296E-07  0.749E-04    2.66      19.9  T
   8    -67.2423335 -0.522826E-08  0.309E-04    2.66      48.3  T
     SCC iter.                  ...        0 min,  0.023 sec
     gradient                   ...        0 min,  0.014 sec
 * total energy  :   -66.2583075 Eh     change       -0.6511519E-02 Eh
   gradient norm :     0.0398307 Eh/α   predicted    -0.5027450E-02 ( -22.79%)
   displ. norm   :     0.2490182 α      lambda       -0.3086429E-02
   maximum displ.:     0.1067228 α      in ANC's #11, #15, #24, ...

........................................................................
.............................. CYCLE    3 ..............................
........................................................................

 iter      E             dE          RMSdq      gap      omega  full diag
   1    -67.2644605 -0.672645E+02  0.139E-01    2.63       0.0  T
   2    -67.2647335 -0.272948E-03  0.820E-02    2.63       1.0  T
   3    -67.2648580 -0.124499E-03  0.450E-02    2.64       1.0  T
   4    -67.2648758 -0.178388E-04  0.157E-02    2.64       1.0  T
   5    -67.2648770 -0.121100E-05  0.327E-03    2.64       4.6  T
   6    -67.2648774 -0.340418E-06  0.142E-03    2.64      10.5  T
   7    -67.2648774 -0.104718E-07  0.792E-04    2.64      18.8  T
   8    -67.2648774 -0.598165E-08  0.275E-04    2.64      54.2  T
     SCC iter.                  ...        0 min,  0.029 sec
     gradient                   ...        0 min,  0.016 sec
 * total energy  :   -66.2600880 Eh     change       -0.1780487E-02 Eh
   gradient norm :     0.0098290 Eh/α   predicted    -0.1639521E-02 (  -7.92%)
   displ. norm   :     0.1578293 α      lambda       -0.4491733E-03
   maximum displ.:     0.0725477 α      in ANC's #11, #6, #15, ...

........................................................................
.............................. CYCLE    4 ..............................
........................................................................

 iter      E             dE          RMSdq      gap      omega  full diag
   1    -67.2650695 -0.672651E+02  0.520E-02    2.62       0.0  T
   2    -67.2650875 -0.179843E-04  0.298E-02    2.63       1.0  T
   3    -67.2650906 -0.310382E-05  0.187E-02    2.63       1.0  T
   4    -67.2650959 -0.532694E-05  0.363E-03    2.63       4.1  T
   5    -67.2650961 -0.198674E-06  0.911E-04    2.63      16.4  T
   6    -67.2650962 -0.215659E-07  0.431E-04    2.63      34.6  T
     SCC iter.                  ...        0 min,  0.017 sec
     gradient                   ...        0 min,  0.014 sec
 * total energy  :   -66.2604205 Eh     change       -0.3325312E-03 Eh
   gradient norm :     0.0049926 Eh/α   predicted    -0.2301899E-03 ( -30.78%)
   displ. norm   :     0.2176466 α      lambda       -0.3583844E-03
   maximum displ.:     0.1025259 α      in ANC's #6, #7, #11, ...

........................................................................
.............................. CYCLE    5 ..............................
........................................................................

 iter      E             dE          RMSdq      gap      omega  full diag
   1    -67.2630061 -0.672630E+02  0.663E-02    2.61       0.0  T
   2    -67.2630126 -0.644487E-05  0.386E-02    2.61       1.0  T
   3    -67.2630049  0.765210E-05  0.179E-02    2.61       1.0  T
   4    -67.2630151 -0.102168E-04  0.225E-03    2.61       6.6  T
   5    -67.2630153 -0.149694E-06  0.833E-04    2.61      17.9  T
   6    -67.2630153 -0.714888E-08  0.475E-04    2.61      31.4  T
     SCC iter.                  ...        0 min,  0.016 sec
     gradient                   ...        0 min,  0.012 sec
 * total energy  :   -66.2606448 Eh     change       -0.2243311E-03 Eh
   gradient norm :     0.0047643 Eh/α   predicted    -0.1876826E-03 ( -16.34%)
   displ. norm   :     0.1369498 α      lambda       -0.1111872E-03
   maximum displ.:     0.0803764 α      in ANC's #6, #3, #7, ...

........................................................................
.............................. CYCLE    6 ..............................
........................................................................

 iter      E             dE          RMSdq      gap      omega  full diag
   1    -67.2623498 -0.672623E+02  0.426E-02    2.60       0.0  T
   2    -67.2623503 -0.495081E-06  0.251E-02    2.60       1.0  T
   3    -67.2623501  0.168645E-06  0.300E-03    2.60       5.0  T
   4    -67.2623504 -0.274906E-06  0.843E-04    2.60      17.7  T
   5    -67.2623504 -0.106314E-07  0.394E-04    2.60      37.8  T
     SCC iter.                  ...        0 min,  0.011 sec
     gradient                   ...        0 min,  0.012 sec
 * total energy  :   -66.2607304 Eh     change       -0.8553878E-04 Eh
   gradient norm :     0.0039796 Eh/α   predicted    -0.5663938E-04 ( -33.79%)
   displ. norm   :     0.1833848 α      lambda       -0.1297584E-03
   maximum displ.:     0.1096974 α      in ANC's #6, #3, #7, ...

........................................................................
.............................. CYCLE    7 ..............................
........................................................................

 iter      E             dE          RMSdq      gap      omega  full diag
   1    -67.2623353 -0.672623E+02  0.599E-02    2.60       0.0  T
   2    -67.2623371 -0.174252E-05  0.353E-02    2.60       1.0  T
   3    -67.2623345  0.257281E-05  0.848E-03    2.60       1.8  T
   4    -67.2623376 -0.304147E-05  0.148E-03    2.60      10.1  T
   5    -67.2623376 -0.640535E-07  0.575E-04    2.60      25.9  T
   6    -67.2623376 -0.190724E-08  0.326E-04    2.60      45.7  T
     SCC iter.                  ...        0 min,  0.019 sec
     gradient                   ...        0 min,  0.010 sec
 * total energy  :   -66.2608287 Eh     change       -0.9830809E-04 Eh
   gradient norm :     0.0023829 Eh/α   predicted    -0.6706165E-04 ( -31.78%)
   displ. norm   :     0.1999404 α      lambda       -0.1108373E-03
   maximum displ.:     0.1190653 α      in ANC's #6, #3, #2, ...

........................................................................
.............................. CYCLE    8 ..............................
........................................................................

 iter      E             dE          RMSdq      gap      omega  full diag
   1    -67.2627104 -0.672627E+02  0.666E-02    2.59       0.0  T
   2    -67.2627116 -0.124796E-05  0.392E-02    2.59       1.0  T
   3    -67.2627090  0.264210E-05  0.831E-03    2.59       1.8  T
   4    -67.2627121 -0.313041E-05  0.122E-03    2.59      12.2  T
   5    -67.2627122 -0.305453E-07  0.571E-04    2.59      26.1  T
   6    -67.2627122 -0.143697E-08  0.298E-04    2.59      50.0  T
     SCC iter.                  ...        0 min,  0.015 sec
     gradient                   ...        0 min,  0.012 sec
 * total energy  :   -66.2609143 Eh     change       -0.8561223E-04 Eh
   gradient norm :     0.0030260 Eh/α   predicted    -0.5763458E-04 ( -32.68%)
   displ. norm   :     0.2235881 α      lambda       -0.1047845E-03
   maximum displ.:     0.1302826 α      in ANC's #6, #3, #2, ...

........................................................................
.............................. CYCLE    9 ..............................
........................................................................

 iter      E             dE          RMSdq      gap      omega  full diag
   1    -67.2629797 -0.672630E+02  0.745E-02    2.58       0.0  T
   2    -67.2629804 -0.709540E-06  0.438E-02    2.58       1.0  T
   3    -67.2629788  0.160401E-05  0.653E-03    2.58       2.3  T
   4    -67.2629808 -0.197646E-05  0.104E-03    2.58      14.3  T
   5    -67.2629808 -0.961363E-08  0.565E-04    2.58      26.4  T
   6    -67.2629808 -0.108042E-08  0.227E-04    2.58      65.5  T
     SCC iter.                  ...        0 min,  0.016 sec
     gradient                   ...        0 min,  0.013 sec
 * total energy  :   -66.2609993 Eh     change       -0.8496770E-04 Eh
   gradient norm :     0.0036577 Eh/α   predicted    -0.5501626E-04 ( -35.25%)
   displ. norm   :     0.2858666 α      lambda       -0.1228295E-03
   maximum displ.:     0.1609650 α      in ANC's #6, #3, #2, ...

........................................................................
.............................. CYCLE   10 ..............................
........................................................................

 iter      E             dE          RMSdq      gap      omega  full diag
   1    -67.2627965 -0.672628E+02  0.946E-02    2.58       0.0  T
   2    -67.2627972 -0.715364E-06  0.556E-02    2.58       1.0  T
   3    -67.2627964  0.846131E-06  0.572E-03    2.58       2.6  T
   4    -67.2627976 -0.123516E-05  0.119E-03    2.58      12.5  T
   5    -67.2627976 -0.294510E-08  0.568E-04    2.58      26.3  T
   6    -67.2627976 -0.217851E-08  0.184E-04    2.58      80.8  T
     SCC iter.                  ...        0 min,  0.015 sec
     gradient                   ...        0 min,  0.012 sec
 * total energy  :   -66.2610983 Eh     change       -0.9907955E-04 Eh
   gradient norm :     0.0033116 Eh/α   predicted    -0.6643454E-04 ( -32.95%)
   displ. norm   :     0.3426711 α      lambda       -0.1253895E-03
   maximum displ.:     0.1897431 α      in ANC's #3, #6, #2, ...

........................................................................
.............................. CYCLE   11 ..............................
........................................................................

 iter      E             dE          RMSdq      gap      omega  full diag
   1    -67.2620382 -0.672620E+02  0.113E-01    2.56       0.0  T
   2    -67.2620393 -0.110829E-05  0.665E-02    2.57       1.0  T
   3    -67.2620385  0.848865E-06  0.632E-03    2.57       2.4  T
   4    -67.2620398 -0.136750E-05  0.146E-03    2.57      10.2  T
   5    -67.2620399 -0.830049E-08  0.721E-04    2.57      20.7  T
   6    -67.2620399 -0.874010E-09  0.254E-04    2.57      58.7  T
     SCC iter.                  ...        0 min,  0.013 sec
     gradient                   ...        0 min,  0.012 sec
 * total energy  :   -66.2611906 Eh     change       -0.9226515E-04 Eh
   gradient norm :     0.0027667 Eh/α   predicted    -0.7005743E-04 ( -24.07%)
   displ. norm   :     0.2255196 α      lambda       -0.7049526E-04
   maximum displ.:     0.1325963 α      in ANC's #3, #6, #2, ...

........................................................................
.............................. CYCLE   12 ..............................
........................................................................

 iter      E             dE          RMSdq      gap      omega  full diag
   1    -67.2626366 -0.672626E+02  0.737E-02    2.56       0.0  T
   2    -67.2626372 -0.682080E-06  0.434E-02    2.56       1.0  T
   3    -67.2626367  0.508299E-06  0.456E-03    2.56       3.3  T
   4    -67.2626375 -0.747768E-06  0.108E-03    2.56      13.8  T
   5    -67.2626375 -0.125555E-07  0.552E-04    2.56      27.0  T
   6    -67.2626375 -0.330004E-09  0.248E-04    2.56      60.1  T
     SCC iter.                  ...        0 min,  0.013 sec
     gradient                   ...        0 min,  0.013 sec
 * total energy  :   -66.2612403 Eh     change       -0.4968661E-04 Eh
   gradient norm :     0.0022084 Eh/α   predicted    -0.3704174E-04 ( -25.45%)
   displ. norm   :     0.1495814 α      lambda       -0.3956292E-04
   maximum displ.:     0.0917012 α      in ANC's #3, #2, #6, ...

........................................................................
.............................. CYCLE   13 ..............................
........................................................................

 iter      E             dE          RMSdq      gap      omega  full diag
   1    -67.2632836 -0.672633E+02  0.473E-02    2.56       0.0  T
   2    -67.2632839 -0.236247E-06  0.278E-02    2.56       1.0  T
   3    -67.2632837  0.210140E-06  0.291E-03    2.56       5.1  T
   4    -67.2632840 -0.315257E-06  0.613E-04    2.56      24.3  T
   5    -67.2632840 -0.122151E-08  0.316E-04    2.56      47.2  T
     SCC iter.                  ...        0 min,  0.012 sec
     gradient                   ...        0 min,  0.014 sec
 * total energy  :   -66.2612708 Eh     change       -0.3048067E-04 Eh
   gradient norm :     0.0017986 Eh/α   predicted    -0.2022772E-04 ( -33.64%)
   displ. norm   :     0.2177955 α      lambda       -0.3603547E-04
   maximum displ.:     0.1360627 α      in ANC's #3, #2, #6, ...

........................................................................
.............................. CYCLE   14 ..............................
........................................................................

 iter      E             dE          RMSdq      gap      omega  full diag
   1    -67.2639749 -0.672640E+02  0.654E-02    2.56       0.0  T
   2    -67.2639754 -0.441057E-06  0.384E-02    2.56       1.0  T
   3    -67.2639748  0.513242E-06  0.434E-03    2.56       3.4  T
   4    -67.2639756 -0.725013E-06  0.817E-04    2.56      18.2  T
   5    -67.2639756 -0.321336E-09  0.412E-04    2.56      36.2  T
     SCC iter.                  ...        0 min,  0.012 sec
     gradient                   ...        0 min,  0.013 sec
 * total energy  :   -66.2613078 Eh     change       -0.3706892E-04 Eh
   gradient norm :     0.0018521 Eh/α   predicted    -0.1840210E-04 ( -50.36%)
   displ. norm   :     0.1778595 α      lambda       -0.2452412E-04
   maximum displ.:     0.1117416 α      in ANC's #3, #2, #6, ...

........................................................................
.............................. CYCLE   15 ..............................
........................................................................

 iter      E             dE          RMSdq      gap      omega  full diag
   1    -67.2635823 -0.672636E+02  0.518E-02    2.56       0.0  T
   2    -67.2635826 -0.349770E-06  0.305E-02    2.56       1.0  T
   3    -67.2635820  0.653517E-06  0.429E-03    2.56       3.5  T
   4    -67.2635828 -0.817329E-06  0.681E-04    2.56      21.9  T
   5    -67.2635828 -0.362583E-08  0.377E-04    2.56      39.5  T
     SCC iter.                  ...        0 min,  0.026 sec
     gradient                   ...        0 min,  0.018 sec
 * total energy  :   -66.2613384 Eh     change       -0.3055853E-04 Eh
   gradient norm :     0.0018475 Eh/α   predicted    -0.1243709E-04 ( -59.30%)
   displ. norm   :     0.2371250 α      lambda       -0.3833616E-04
   maximum displ.:     0.1449713 α      in ANC's #3, #2, #4, ...

........................................................................
.............................. CYCLE   16 ..............................
........................................................................

 iter      E             dE          RMSdq      gap      omega  full diag
   1    -67.2646067 -0.672646E+02  0.625E-02    2.55       0.0  T
   2    -67.2646071 -0.401012E-06  0.368E-02    2.56       1.0  T
   3    -67.2646070  0.168288E-06  0.314E-03    2.55       4.7  T
   4    -67.2646073 -0.326428E-06  0.837E-04    2.56      17.8  T
   5    -67.2646073 -0.220238E-08  0.419E-04    2.56      35.6  T
     SCC iter.                  ...        0 min,  0.019 sec
     gradient                   ...        0 min,  0.014 sec
 * total energy  :   -66.2613774 Eh     change       -0.3896800E-04 Eh
   gradient norm :     0.0021396 Eh/α   predicted    -0.1964791E-04 ( -49.58%)
   displ. norm   :     0.2384252 α      lambda       -0.4168601E-04
   maximum displ.:     0.1475954 α      in ANC's #3, #2, #6, ...

........................................................................
.............................. CYCLE   17 ..............................
........................................................................

 iter      E             dE          RMSdq      gap      omega  full diag
   1    -67.2625813 -0.672626E+02  0.675E-02    2.55       0.0  T
   2    -67.2625818 -0.559170E-06  0.397E-02    2.55       1.0  T
   3    -67.2625814  0.406242E-06  0.391E-03    2.55       3.8  T
   4    -67.2625820 -0.609480E-06  0.907E-04    2.55      16.4  T
   5    -67.2625821 -0.541134E-08  0.494E-04    2.55      30.2  T
     SCC iter.                  ...        0 min,  0.014 sec
     gradient                   ...        0 min,  0.012 sec
 * total energy  :   -66.2614060 Eh     change       -0.2866007E-04 Eh
   gradient norm :     0.0019037 Eh/α   predicted    -0.2202866E-04 ( -23.14%)
   displ. norm   :     0.3627225 α      lambda        0.1417017E-04
   maximum displ.:     0.2246487 α      in ANC's #3, #2, #6, ...

........................................................................
.............................. CYCLE   18 ..............................
........................................................................

 iter      E             dE          RMSdq      gap      omega  full diag
   1    -67.2579964 -0.672580E+02  0.103E-01    2.53       0.0  T
   2    -67.2579979 -0.141007E-05  0.608E-02    2.53       1.0  T
   3    -67.2579969  0.976239E-06  0.610E-03    2.53       2.4  T
   4    -67.2579983 -0.146538E-05  0.140E-03    2.53      10.6  T
   5    -67.2579984 -0.131118E-07  0.770E-04    2.53      19.4  T
   6    -67.2579984 -0.418733E-08  0.335E-04    2.53      44.6  T
     SCC iter.                  ...        0 min,  0.016 sec
     gradient                   ...        0 min,  0.012 sec
 * total energy  :   -66.2613782 Eh     change        0.2779326E-04 Eh
   gradient norm :     0.0055093 Eh/α   predicted     0.7495359E-05 ( -73.03%)
   displ. norm   :     0.1042116 α      lambda       -0.6712540E-04
   maximum displ.:     0.0583986 α      in ANC's #3, #6, #2, ...

........................................................................
.............................. CYCLE   19 ..............................
........................................................................

 iter      E             dE          RMSdq      gap      omega  full diag
   1    -67.2614165 -0.672614E+02  0.349E-02    2.54       0.0  T
   2    -67.2614168 -0.333528E-06  0.205E-02    2.54       1.0  T
   3    -67.2614164  0.413902E-06  0.367E-03    2.54       4.1  T
   4    -67.2614169 -0.518724E-06  0.552E-04    2.54      27.0  T
   5    -67.2614169 -0.433326E-08  0.296E-04    2.54      50.4  T
     SCC iter.                  ...        0 min,  0.011 sec
     gradient                   ...        0 min,  0.014 sec
 * total energy  :   -66.2614243 Eh     change       -0.4604877E-04 Eh
   gradient norm :     0.0027497 Eh/α   predicted    -0.3392883E-04 ( -26.32%)
   displ. norm   :     0.0492221 α      lambda       -0.3554025E-04
   maximum displ.:     0.0302458 α      in ANC's #6, #7, #1, ...

........................................................................
.............................. CYCLE   20 ..............................
........................................................................

 iter      E             dE          RMSdq      gap      omega  full diag
   1    -67.2635935 -0.672636E+02  0.151E-02    2.55       0.0  T
   2    -67.2635937 -0.185295E-06  0.900E-03    2.55       1.7  T
   3    -67.2635934  0.340142E-06  0.318E-03    2.55       4.7  T
   4    -67.2635938 -0.418900E-06  0.400E-04    2.55      37.3  T
   5    -67.2635938 -0.392058E-08  0.182E-04    2.55      81.8  T
     SCC iter.                  ...        0 min,  0.016 sec
     gradient                   ...        0 min,  0.013 sec
 * total energy  :   -66.2614471 Eh     change       -0.2278810E-04 Eh
   gradient norm :     0.0010034 Eh/α   predicted    -0.1781677E-04 ( -21.82%)
   displ. norm   :     0.1421522 α      lambda       -0.2033333E-04
   maximum displ.:     0.0980891 α      in ANC's #2, #3, #7, ...
 * RMSD in coord.:     0.4516216 α      energy gain  -0.9651108E-02 Eh

generating ANC from exact Hessian ...
Using Lindh-Hessian (1995)
 Shifting diagonal of input Hessian by    9.7663227997309716E-003
 Lowest  eigenvalues of input Hessian
    0.000000    0.000000    0.000000    0.000000    0.000000    0.000000
    0.010000    0.010041    0.010366    0.010749    0.011181    0.011696
    0.013137    0.013732    0.014187    0.015213    0.015999    0.016951
 Highest eigenvalues
    1.945483    1.994442    2.048824    2.082885    2.112289    2.162702


........................................................................
.............................. CYCLE   21 ..............................
........................................................................

 iter      E             dE          RMSdq      gap      omega  full diag
   1    -67.2651618 -0.672652E+02  0.268E-02    2.55       0.0  T
   2    -67.2651620 -0.290609E-06  0.159E-02    2.55       1.0  T
   3    -67.2651613  0.787803E-06  0.455E-03    2.55       3.3  T
   4    -67.2651622 -0.929998E-06  0.554E-04    2.55      26.9  T
   5    -67.2651622 -0.502439E-08  0.286E-04    2.55      52.1  T
     SCC iter.                  ...        0 min,  0.021 sec
     gradient                   ...        0 min,  0.021 sec
 * total energy  :   -66.2614660 Eh     change       -0.1896186E-04 Eh
   gradient norm :     0.0019658 Eh/α   predicted     0.0000000E+00 (-100.00%)
   displ. norm   :     0.0323735 α      lambda       -0.3802873E-05
   maximum displ.:     0.0200082 α      in ANC's #1, #6, #16, ...

........................................................................
.............................. CYCLE   22 ..............................
........................................................................

 iter      E             dE          RMSdq      gap      omega  full diag
   1    -67.2631879 -0.672632E+02  0.101E-02    2.54       0.0  T
   2    -67.2631880 -0.907007E-07  0.605E-03    2.54       2.5  T
   3    -67.2631878  0.135387E-06  0.203E-03    2.54       7.3  T
   4    -67.2631880 -0.167950E-06  0.287E-04    2.54      51.9  T
   5    -67.2631880 -0.231691E-08  0.127E-04    2.54     117.5  T
     SCC iter.                  ...        0 min,  0.017 sec
     gradient                   ...        0 min,  0.011 sec
 * total energy  :   -66.2614792 Eh     change       -0.1314609E-04 Eh
   gradient norm :     0.0005120 Eh/α   predicted    -0.7634766E-05 ( -41.92%)
   displ. norm   :     0.0420478 α      lambda       -0.6212362E-05
   maximum displ.:     0.0275587 α      in ANC's #1, #6, #16, ...

........................................................................
.............................. CYCLE   23 ..............................
........................................................................

 iter      E             dE          RMSdq      gap      omega  full diag
   1    -67.2629997 -0.672630E+02  0.672E-03    2.54       0.0  T
   2    -67.2629997 -0.203182E-07  0.399E-03    2.54       3.7  T
   3    -67.2629996  0.490936E-07  0.113E-03    2.54      13.1  T
   4    -67.2629997 -0.579919E-07  0.155E-04    2.54      96.2  T
   5    -67.2629997 -0.399893E-09  0.787E-05    2.54     189.3  T
     SCC iter.                  ...        0 min,  0.011 sec
     gradient                   ...        0 min,  0.012 sec
 * total energy  :   -66.2614876 Eh     change       -0.8396196E-05 Eh
   gradient norm :     0.0007251 Eh/α   predicted    -0.3109016E-05 ( -62.97%)
   displ. norm   :     0.1258501 α      lambda       -0.1683403E-04
   maximum displ.:     0.0762918 α      in ANC's #1, #6, #3, ...

........................................................................
.............................. CYCLE   24 ..............................
........................................................................

 iter      E             dE          RMSdq      gap      omega  full diag
   1    -67.2631839 -0.672632E+02  0.199E-02    2.54       0.0  T
   2    -67.2631840 -0.861394E-07  0.118E-02    2.54       1.3  T
   3    -67.2631838  0.233094E-06  0.246E-03    2.54       6.1  T
   4    -67.2631840 -0.279309E-06  0.395E-04    2.54      37.8  T
   5    -67.2631840 -0.103206E-08  0.208E-04    2.54      71.5  T
     SCC iter.                  ...        0 min,  0.023 sec
     gradient                   ...        0 min,  0.011 sec
 * total energy  :   -66.2615074 Eh     change       -0.1977935E-04 Eh
   gradient norm :     0.0007882 Eh/α   predicted    -0.8477217E-05 ( -57.14%)
   displ. norm   :     0.1487941 α      lambda       -0.1396627E-04
   maximum displ.:     0.0937532 α      in ANC's #1, #6, #3, ...

........................................................................
.............................. CYCLE   25 ..............................
........................................................................

 iter      E             dE          RMSdq      gap      omega  full diag
   1    -67.2635074 -0.672635E+02  0.230E-02    2.54       0.0  T
   2    -67.2635075 -0.606283E-07  0.137E-02    2.54       1.1  T
   3    -67.2635074  0.573560E-07  0.147E-03    2.54      10.1  T
   4    -67.2635075 -0.873144E-07  0.423E-04    2.54      35.2  T
   5    -67.2635075 -0.754028E-09  0.205E-04    2.54      72.6  T
     SCC iter.                  ...        0 min,  0.011 sec
     gradient                   ...        0 min,  0.013 sec
 * total energy  :   -66.2615221 Eh     change       -0.1473856E-04 Eh
   gradient norm :     0.0007526 Eh/α   predicted    -0.7058538E-05 ( -52.11%)
   displ. norm   :     0.1032485 α      lambda       -0.8002571E-05
   maximum displ.:     0.0687546 α      in ANC's #1, #6, #3, ...

........................................................................
.............................. CYCLE   26 ..............................
........................................................................

 iter      E             dE          RMSdq      gap      omega  full diag
   1    -67.2637672 -0.672638E+02  0.146E-02    2.54       0.0  T
   2    -67.2637672 -0.224522E-07  0.865E-03    2.54       1.7  T
   3    -67.2637672 -0.215678E-08  0.545E-04    2.54      27.3  T
   4    -67.2637672 -0.723776E-08  0.267E-04    2.54      55.7  T
     SCC iter.                  ...        0 min,  0.010 sec
     gradient                   ...        0 min,  0.012 sec
 * total energy  :   -66.2615313 Eh     change       -0.9254002E-05 Eh
   gradient norm :     0.0005236 Eh/α   predicted    -0.4023831E-05 ( -56.52%)
   displ. norm   :     0.0881889 α      lambda       -0.7686747E-05
   maximum displ.:     0.0601995 α      in ANC's #1, #3, #6, ...

........................................................................
.............................. CYCLE   27 ..............................
........................................................................

 iter      E             dE          RMSdq      gap      omega  full diag
   1    -67.2639763 -0.672640E+02  0.119E-02    2.54       0.0  T
   2    -67.2639764 -0.184559E-07  0.703E-03    2.54       2.1  T
   3    -67.2639763  0.271622E-07  0.981E-04    2.54      15.2  T
   4    -67.2639764 -0.362425E-07  0.214E-04    2.54      69.7  T
     SCC iter.                  ...        0 min,  0.010 sec
     gradient                   ...        0 min,  0.011 sec
 * total energy  :   -66.2615416 Eh     change       -0.1026250E-04 Eh
   gradient norm :     0.0004112 Eh/α   predicted    -0.3857423E-05 ( -62.41%)
   displ. norm   :     0.1317025 α      lambda       -0.1207250E-04
   maximum displ.:     0.0891257 α      in ANC's #1, #3, #2, ...

........................................................................
.............................. CYCLE   28 ..............................
........................................................................

 iter      E             dE          RMSdq      gap      omega  full diag
   1    -67.2638268 -0.672638E+02  0.170E-02    2.54       0.0  T
   2    -67.2638269 -0.262882E-07  0.100E-02    2.54       1.5  T
   3    -67.2638268  0.342425E-07  0.111E-03    2.54      13.4  T
   4    -67.2638269 -0.490204E-07  0.272E-04    2.54      54.8  T
   5    -67.2638269 -0.125567E-09  0.133E-04    2.54     111.8  T
     SCC iter.                  ...        0 min,  0.011 sec
     gradient                   ...        0 min,  0.012 sec
 * total energy  :   -66.2615573 Eh     change       -0.1564203E-04 Eh
   gradient norm :     0.0005285 Eh/α   predicted    -0.6083532E-05 ( -61.11%)
   displ. norm   :     0.1643388 α      lambda       -0.1280502E-04
   maximum displ.:     0.1118462 α      in ANC's #1, #3, #2, ...

........................................................................
.............................. CYCLE   29 ..............................
........................................................................

 iter      E             dE          RMSdq      gap      omega  full diag
   1    -67.2634346 -0.672634E+02  0.208E-02    2.54       0.0  T
   2    -67.2634347 -0.415301E-07  0.123E-02    2.54       1.2  T
   3    -67.2634347  0.123039E-07  0.946E-04    2.54      15.8  T
   4    -67.2634347 -0.286617E-07  0.314E-04    2.54      47.5  T
     SCC iter.                  ...        0 min,  0.011 sec
     gradient                   ...        0 min,  0.012 sec
 * total energy  :   -66.2615731 Eh     change       -0.1583147E-04 Eh
   gradient norm :     0.0005182 Eh/α   predicted    -0.6480099E-05 ( -59.07%)
   displ. norm   :     0.1379620 α      lambda       -0.9053068E-05
   maximum displ.:     0.0955727 α      in ANC's #1, #3, #2, ...

........................................................................
.............................. CYCLE   30 ..............................
........................................................................

 iter      E             dE          RMSdq      gap      omega  full diag
   1    -67.2634031 -0.672634E+02  0.170E-02    2.54       0.0  T
   2    -67.2634032 -0.260480E-07  0.101E-02    2.54       1.5  T
   3    -67.2634032  0.199333E-07  0.925E-04    2.54      16.1  T
   4    -67.2634032 -0.314706E-07  0.244E-04    2.54      61.2  T
     SCC iter.                  ...        0 min,  0.010 sec
     gradient                   ...        0 min,  0.012 sec
 * total energy  :   -66.2615847 Eh     change       -0.1163171E-04 Eh
   gradient norm :     0.0004297 Eh/α   predicted    -0.4568633E-05 ( -60.72%)
   displ. norm   :     0.1117523 α      lambda       -0.7134572E-05
   maximum displ.:     0.0794269 α      in ANC's #1, #3, #2, ...

........................................................................
.............................. CYCLE   31 ..............................
........................................................................

 iter      E             dE          RMSdq      gap      omega  full diag
   1    -67.2633591 -0.672634E+02  0.141E-02    2.54       0.0  T
   2    -67.2633591 -0.203853E-07  0.835E-03    2.54       1.8  T
   3    -67.2633591  0.999879E-08  0.702E-04    2.54      21.2  T
   4    -67.2633591 -0.172967E-07  0.208E-04    2.54      71.6  T
     SCC iter.                  ...        0 min,  0.011 sec
     gradient                   ...        0 min,  0.012 sec
 * total energy  :   -66.2615943 Eh     change       -0.9606390E-05 Eh
   gradient norm :     0.0003074 Eh/α   predicted    -0.3587432E-05 ( -62.66%)
   displ. norm   :     0.0969835 α      lambda       -0.6678340E-05
   maximum displ.:     0.0706467 α      in ANC's #1, #3, #2, ...

........................................................................
.............................. CYCLE   32 ..............................
........................................................................

 iter      E             dE          RMSdq      gap      omega  full diag
   1    -67.2634492 -0.672634E+02  0.133E-02    2.54       0.0  T
   2    -67.2634492 -0.142174E-07  0.789E-03    2.54       1.9  T
   3    -67.2634492  0.266169E-08  0.541E-04    2.54      27.6  T
   4    -67.2634492 -0.878168E-08  0.196E-04    2.54      76.2  T
     SCC iter.                  ...        0 min,  0.009 sec
     gradient                   ...        0 min,  0.013 sec
 * total energy  :   -66.2616034 Eh     change       -0.9034240E-05 Eh
   gradient norm :     0.0002336 Eh/α   predicted    -0.3357711E-05 ( -62.83%)
   displ. norm   :     0.0960218 α      lambda       -0.6398367E-05
   maximum displ.:     0.0716701 α      in ANC's #1, #3, #2, ...

........................................................................
.............................. CYCLE   33 ..............................
........................................................................

 iter      E             dE          RMSdq      gap      omega  full diag
   1    -67.2634833 -0.672635E+02  0.154E-02    2.54       0.0  T
   2    -67.2634833 -0.184572E-07  0.913E-03    2.54       1.6  T
   3    -67.2634833 -0.259995E-08  0.492E-04    2.54      30.3  T
   4    -67.2634834 -0.548971E-08  0.237E-04    2.54      62.9  T
     SCC iter.                  ...        0 min,  0.009 sec
     gradient                   ...        0 min,  0.013 sec
 * total energy  :   -66.2616119 Eh     change       -0.8515351E-05 Eh
   gradient norm :     0.0002399 Eh/α   predicted    -0.3216490E-05 ( -62.23%)
   displ. norm   :     0.0839242 α      lambda       -0.5110986E-05
   maximum displ.:     0.0639971 α      in ANC's #1, #3, #2, ...

........................................................................
.............................. CYCLE   34 ..............................
........................................................................

 iter      E             dE          RMSdq      gap      omega  full diag
   1    -67.2635188 -0.672635E+02  0.159E-02    2.54       0.0  T
   2    -67.2635188 -0.187016E-07  0.942E-03    2.54       1.6  T
   3    -67.2635188  0.391935E-09  0.575E-04    2.54      25.9  T
   4    -67.2635188 -0.961305E-08  0.249E-04    2.54      59.8  T
     SCC iter.                  ...        0 min,  0.008 sec
     gradient                   ...        0 min,  0.013 sec
 * total energy  :   -66.2616188 Eh     change       -0.6884866E-05 Eh
   gradient norm :     0.0002117 Eh/α   predicted    -0.2567969E-05 ( -62.70%)
   displ. norm   :     0.0735429 α      lambda       -0.4357876E-05
   maximum displ.:     0.0563680 α      in ANC's #1, #3, #2, ...

........................................................................
.............................. CYCLE   35 ..............................
........................................................................

 iter      E             dE          RMSdq      gap      omega  full diag
   1    -67.2635562 -0.672636E+02  0.168E-02    2.54       0.0  T
   2    -67.2635562 -0.195123E-07  0.993E-03    2.54       1.5  T
   3    -67.2635562  0.149365E-08  0.612E-04    2.54      24.4  T
   4    -67.2635562 -0.117128E-07  0.255E-04    2.54      58.4  T
     SCC iter.                  ...        0 min,  0.010 sec
     gradient                   ...        0 min,  0.011 sec
 * total energy  :   -66.2616248 Eh     change       -0.6069145E-05 Eh
   gradient norm :     0.0002216 Eh/α   predicted    -0.2188569E-05 ( -63.94%)
   displ. norm   :     0.0773976 α      lambda       -0.4717839E-05
   maximum displ.:     0.0587790 α      in ANC's #1, #3, #5, ...

........................................................................
.............................. CYCLE   36 ..............................
........................................................................

 iter      E             dE          RMSdq      gap      omega  full diag
   1    -67.2635199 -0.672635E+02  0.198E-02    2.54       0.0  T
   2    -67.2635199 -0.266031E-07  0.117E-02    2.54       1.3  T
   3    -67.2635199  0.256455E-08  0.708E-04    2.54      21.1  T
   4    -67.2635199 -0.158748E-07  0.277E-04    2.54      53.9  T
     SCC iter.                  ...        0 min,  0.012 sec
     gradient                   ...        0 min,  0.011 sec
 * total energy  :   -66.2616315 Eh     change       -0.6655183E-05 Eh
   gradient norm :     0.0002149 Eh/α   predicted    -0.2365671E-05 ( -64.45%)
   displ. norm   :     0.0902472 α      lambda       -0.5558015E-05
   maximum displ.:     0.0670351 α      in ANC's #1, #3, #5, ...

........................................................................
.............................. CYCLE   37 ..............................
........................................................................

 iter      E             dE          RMSdq      gap      omega  full diag
   1    -67.2634811 -0.672635E+02  0.249E-02    2.54       0.0  T
   2    -67.2634811 -0.401348E-07  0.147E-02    2.54       1.0  T
   3    -67.2634811  0.392602E-08  0.878E-04    2.54      17.0  T
   4    -67.2634811 -0.239658E-07  0.323E-04    2.54      46.1  T
     SCC iter.                  ...        0 min,  0.008 sec
     gradient                   ...        0 min,  0.012 sec
 * total energy  :   -66.2616393 Eh     change       -0.7855507E-05 Eh
   gradient norm :     0.0002191 Eh/α   predicted    -0.2792556E-05 ( -64.45%)
   displ. norm   :     0.1203680 α      lambda       -0.7137660E-05
   maximum displ.:     0.0878361 α      in ANC's #1, #3, #5, ...

........................................................................
.............................. CYCLE   38 ..............................
........................................................................

 iter      E             dE          RMSdq      gap      omega  full diag
   1    -67.2633618 -0.672634E+02  0.343E-02    2.53       0.0  T
   2    -67.2633619 -0.755385E-07  0.202E-02    2.53       1.0  T
   3    -67.2633618  0.211563E-07  0.132E-03    2.53      11.3  T
   4    -67.2633619 -0.581180E-07  0.409E-04    2.53      36.5  T
   5    -67.2633619 -0.267335E-09  0.162E-04    2.53      91.9  T
     SCC iter.                  ...        0 min,  0.011 sec
     gradient                   ...        0 min,  0.013 sec
 * total energy  :   -66.2616491 Eh     change       -0.9728532E-05 Eh
   gradient norm :     0.0002441 Eh/α   predicted    -0.3592138E-05 ( -63.08%)
   displ. norm   :     0.1517300 α      lambda       -0.7867594E-05
   maximum displ.:     0.1099522 α      in ANC's #1, #3, #5, ...

........................................................................
.............................. CYCLE   39 ..............................
........................................................................

 iter      E             dE          RMSdq      gap      omega  full diag
   1    -67.2632004 -0.672632E+02  0.436E-02    2.53       0.0  T
   2    -67.2632005 -0.123011E-06  0.256E-02    2.53       1.0  T
   3    -67.2632004  0.440309E-07  0.170E-03    2.53       8.8  T
   4    -67.2632005 -0.102097E-06  0.486E-04    2.53      30.7  T
   5    -67.2632005 -0.396184E-09  0.205E-04    2.53      72.7  T
     SCC iter.                  ...        0 min,  0.010 sec
     gradient                   ...        0 min,  0.012 sec
 * total energy  :   -66.2616593 Eh     change       -0.1022534E-04 Eh
   gradient norm :     0.0002921 Eh/α   predicted    -0.3977058E-05 ( -61.11%)
   displ. norm   :     0.1529601 α      lambda       -0.6382256E-05
   maximum displ.:     0.1114940 α      in ANC's #1, #3, #6, ...

........................................................................
.............................. CYCLE   40 ..............................
........................................................................

 iter      E             dE          RMSdq      gap      omega  full diag
   1    -67.2630751 -0.672631E+02  0.434E-02    2.53       0.0  T
   2    -67.2630753 -0.115652E-06  0.255E-02    2.53       1.0  T
   3    -67.2630752  0.500864E-07  0.170E-03    2.53       8.8  T
   4    -67.2630753 -0.105652E-06  0.456E-04    2.53      32.7  T
   5    -67.2630753 -0.246999E-09  0.189E-04    2.53      79.0  T
     SCC iter.                  ...        0 min,  0.012 sec
     gradient                   ...        0 min,  0.011 sec
 * total energy  :   -66.2616671 Eh     change       -0.7826220E-05 Eh
   gradient norm :     0.0003499 Eh/α   predicted    -0.3225252E-05 ( -58.79%)
   displ. norm   :     0.1250593 α      lambda       -0.4062363E-05
   maximum displ.:     0.0926691 α      in ANC's #1, #3, #6, ...

........................................................................
.............................. CYCLE   41 ..............................
........................................................................

 iter      E             dE          RMSdq      gap      omega  full diag
   1    -67.2631403 -0.672631E+02  0.343E-02    2.53       0.0  T
   2    -67.2631404 -0.699197E-07  0.201E-02    2.53       1.0  T
   3    -67.2631403  0.323921E-07  0.134E-03    2.53      11.2  T
   4    -67.2631404 -0.652447E-07  0.339E-04    2.53      43.9  T
   5    -67.2631404 -0.196437E-09  0.148E-04    2.53     100.7  T
     SCC iter.                  ...        0 min,  0.011 sec
     gradient                   ...        0 min,  0.011 sec
 * total energy  :   -66.2616720 Eh     change       -0.4865323E-05 Eh
   gradient norm :     0.0002899 Eh/α   predicted    -0.2046066E-05 ( -57.95%)
   displ. norm   :     0.0932207 α      lambda       -0.2573096E-05
   maximum displ.:     0.0706822 α      in ANC's #1, #3, #6, ...

   *** GEOMETRY OPTIMIZATION CONVERGED AFTER 41 ITERATIONS ***

------------------------------------------------------------------------
 total energy gain   :        -0.0098760 Eh       -6.1973 kcal/mol
 total RMSD          :         0.6592061 a0        0.3488 Å
 total power (kW/mol):        -0.6324264 (step)  -17.4451 (real)
------------------------------------------------------------------------

 ANCopt (total)                0 d,  0 h,  0 min,  1.486 sec
 optimizer setup                ...        0 min,  0.001 sec (  0.054%)
 model hessian                  ...        0 min,  0.051 sec (  3.463%)
 ANC generation                 ...        0 min,  0.007 sec (  0.485%)
 coordinate transformation      ...        0 min,  0.013 sec (  0.855%)
 single point calculation       ...        0 min,  1.364 sec ( 91.755%)
 optimization log               ...        0 min,  0.022 sec (  1.473%)
 hessian update                 ...        0 min,  0.006 sec (  0.375%)
 rational function              ...        0 min,  0.019 sec (  1.260%)

================
 final structure:
================
45
 xtb: 6.7.1 (edcfbbe)
C           -5.85226712150588        1.97646861479731       -0.06393819776904
C           -5.30784936585934        0.65092089053236        0.47745100867864
C           -5.66568503854906        0.56053111538396        1.96872985137849
C           -5.98294319800689       -0.49659712678508       -0.28968962270933
C           -3.80173757549054        0.52510566238815        0.31688421435202
C           -3.14973077447246       -0.61038540772284        0.79754782770836
C           -1.78640814461751       -0.76791559706004        0.66976656939188
C           -1.01261034272319        0.20501092692540        0.03446908150856
C           -1.65480842879546        1.34559595923657       -0.44300957430787
C           -3.02065285784136        1.49906099658870       -0.29868342152680
C            0.43175581596186       -0.00395518631048       -0.10399374319242
O            0.96984183086002       -0.83655907126850        0.77936418301698
C            1.17623119187269        0.58277816692629       -1.09292612476302
C            2.58280542832027        0.33337490167213       -1.22296400960442
O            3.19928296980931       -0.39634270820377       -0.41583268554743
C            3.31897996902533        0.97189885304344       -2.33444968525154
C            2.71085036789462        1.40879936213831       -3.51434292128252
C            3.46062985895309        1.97933415053126       -4.51646168270132
C            4.84346587216241        2.13929143130702       -4.37500137781013
O            5.48022538017591        2.71937825950411       -5.42127030863286
C            6.88409175209655        2.88529432757505       -5.36481837839523
C            5.45983839248400        1.69855699035425       -3.20574285733901
C            4.70011521489140        1.11747932738280       -2.21079349094085
H           -6.92948938796210        2.01093073943027        0.08455455714848
H           -5.65819967823361        2.07470642471514       -1.12942853306888
H           -5.41378617360295        2.82231765707985        0.46064477999036
H           -5.36991104936381       -0.39471810406948        2.39255335572009
H           -5.16523583826291        1.35069002812090        2.52454374784134
H           -6.73959596741717        0.67247867529137        2.10026649895352
H           -5.67159334248603       -1.46508885071701        0.09178548709886
H           -5.72498086720992       -0.44636579683978       -1.34564204982800
H           -7.06389911318968       -0.42272012990306       -0.19421957370201
H           -3.71246810384923       -1.39272940577952        1.28321648085458
H           -1.30218244241281       -1.65452479810050        1.05055731920583
H           -1.08304115239607        2.13407158304581       -0.90750665277081
H           -3.47085107654537        2.40202943582153       -0.67644277118618
H            1.94665039199741       -0.89962117048747        0.57090442259444
H            0.69877556929465        1.24308458901694       -1.79104567837532
H            1.65180285138512        1.27558401643873       -3.66787279261192
H            3.00166832202495        2.31142913937386       -5.43449731211014
H            7.15661763158506        3.35327995508953       -6.30888622587710
H            7.17341278537989        3.53704991099240       -4.53583703053106
H            7.39314069409595        1.92191742507913       -5.27287333764688
H            6.52369389198987        1.79993279858357       -3.06377621621948
H            5.17296135853576        0.76756278888127       -1.30428828973928

 Bond Distances (Angstroems)
 ---------------------------
C1-C2=1.5319         C1-H24=1.0880        C1-H25=1.0875        C1-H26=1.0876        C2-C1=1.5319         C2-C3=1.5363         
C2-C4=1.5366         C2-C5=1.5199         C3-C2=1.5363         C3-H27=1.0861        C3-H28=1.0880        C3-H29=1.0877        
C4-C2=1.5366         C4-H30=1.0865        C4-H31=1.0882        C4-H32=1.0877        C5-C2=1.5199         C5-C6=1.3948         
C5-C10=1.3920        C6-C5=1.3948         C6-C7=1.3783         C6-H33=1.0792        C7-C6=1.3783         C7-C8=1.3960         
C7-H34=1.0796        C8-C7=1.3960         C8-C9=1.3933         C8-C11=1.4660        C9-C8=1.3933         C9-C10=1.3820        
C9-H35=1.0791        C10-C5=1.3920        C10-C9=1.3820        C10-H36=1.0774       C11-C8=1.4660        C11-O12=1.3278       
C11-C13=1.3698       O12-C11=1.3278       O12-H37=1.0008       C13-C11=1.3698       C13-C14=1.4344       C13-H38=1.0730       
C14-C13=1.4344       C14-O15=1.2506       C14-C16=1.4782       O15-C14=1.2506       C16-C14=1.4782       C16-C17=1.3974       
C16-C23=1.3943       C17-C16=1.3974       C17-C18=1.3755       C17-H39=1.0784       C18-C17=1.3755       C18-C19=1.3992       
C18-H40=1.0788       C19-C18=1.3992       C19-O20=1.3552       C19-C22=1.3933       O20-C19=1.3552       O20-C21=1.4148       
C21-O20=1.4148       C21-H41=1.0884       C21-H42=1.0935       C21-H43=1.0935       C22-C19=1.3933       C22-C23=1.3801       
C22-H44=1.0781       C23-C16=1.3943       C23-C22=1.3801       C23-H45=1.0806       H24-C1=1.0880        H25-C1=1.0875        
H26-C1=1.0876        H27-C3=1.0861        H28-C3=1.0880        H29-C3=1.0877        H30-C4=1.0865        H31-C4=1.0882        
H32-C4=1.0877        H33-C6=1.0792        H34-C7=1.0796        H35-C9=1.0791        H36-C10=1.0774       H37-O12=1.0008       
H38-C13=1.0730       H39-C17=1.0784       H40-C18=1.0788       H41-C21=1.0884       H42-C21=1.0935       H43-C21=1.0935       
H44-C22=1.0781       H45-C23=1.0806       
 C  H  Rav=1.0841 sigma=0.0056  Rmin=1.0730  Rmax=1.0935    21
 C  C  Rav=1.4275 sigma=0.0585  Rmin=1.3698  Rmax=1.5366    20
 O  H  Rav=1.0008 sigma=0.0000  Rmin=1.0008  Rmax=1.0008     1
 O  C  Rav=1.3371 sigma=0.0590  Rmin=1.2506  Rmax=1.4148     4

 selected bond angles (degree)
 --------------------
H24-C1-C2=109.33               H25-C1-C2=111.16               H25-C1-H24=107.91              H26-C1-C2=111.05               
H26-C1-H24=107.98              H26-C1-H25=109.29              C3-C2-C1=108.13                C4-C2-C1=108.28                
C4-C2-C3=109.78                C5-C2-C1=112.74                C5-C2-C3=109.18                C5-C2-C4=108.71                
H27-C3-C2=111.54               H28-C3-C2=110.24               H28-C3-H27=108.31              H29-C3-C2=109.96               
H29-C3-H27=108.19              H29-C3-H28=108.52              H30-C4-C2=111.38               H31-C4-C2=110.23               
H31-C4-H30=108.30              H32-C4-C2=110.00               H32-C4-H30=108.33              H32-C4-H31=108.52              
C6-C5-C2=119.62                C10-C5-C2=123.01               C10-C5-C6=117.37               C7-C6-C5=121.56                
H33-C6-C5=120.10               H33-C6-C7=118.34               C8-C7-C6=120.72                H34-C7-C6=120.32               
H34-C7-C8=118.96               C9-C8-C7=118.10                C11-C8-C7=119.32               C11-C8-C9=122.58               
C10-C9-C8=120.71               H35-C9-C8=120.10               H35-C9-C10=119.18              C9-C10-C5=121.54               
H36-C10-C5=120.46              H36-C10-C9=118.00              

 selected dihedral angles (degree)
 ---------------------------------
C3-C2-C1-H24=301.18           C3-C2-C1-H25=182.15           C3-C2-C1-H26= 60.23           C4-C2-C1-H24= 60.07           
C4-C2-C1-H25=301.03           C4-C2-C1-H26=179.12           C5-C2-C1-H24=180.38           C5-C2-C1-H25= 61.35           
C5-C2-C1-H26=299.44           H27-C3-C2-C1=175.72           H27-C3-C2-C4= 57.79           H27-C3-C2-C5=298.71           
H28-C3-C2-C1=296.09           H28-C3-C2-C4=178.15           H28-C3-C2-C5= 59.08           H29-C3-C2-C1= 55.70           
H29-C3-C2-C4=297.76           H29-C3-C2-C5=178.68           H30-C4-C2-C1=183.05           H30-C4-C2-C3=300.89           
H30-C4-C2-C5= 60.25           H31-C4-C2-C1= 62.81           H31-C4-C2-C3=180.65           H31-C4-C2-C5=300.02           
H32-C4-C2-C1=303.18           H32-C4-C2-C3= 61.02           H32-C4-C2-C5=180.38           C6-C5-C2-C1=178.14            
C6-C5-C2-C3= 57.94            C6-C5-C2-C4=298.20            C10-C5-C2-C1=357.99           C10-C5-C2-C3=237.79           
C10-C5-C2-C4=118.05           C7-C6-C5-C2=179.80            C7-C6-C5-C10=359.94           H33-C6-C5-C2=359.81           
H33-C6-C5-C10=179.95          C8-C7-C6-C5=359.16            C8-C7-C6-H33=179.16           H34-C7-C6-C5=179.91           
H34-C7-C6-H33=359.90          C9-C8-C7-C6=  1.11            C9-C8-C7-H34=180.38           C11-C8-C7-C6=181.00           
C11-C8-C7-H34=  0.26          C10-C9-C8-C7=359.48           C10-C9-C8-C11=179.60          H35-C9-C8-C7=177.80           
H35-C9-C8-C11=357.92          C9-C10-C5-C2=180.81           C9-C10-C5-C6=  0.67           H36-C10-C5-C2=  0.95          
H36-C10-C5-C6=180.81          C5-C10-C9-C8=359.62           C5-C10-C9-H35=181.29          H36-C10-C9-C8=179.48          
H36-C10-C9-H35=  1.15         
           -------------------------------------------------
          |                Final Singlepoint                |
           -------------------------------------------------

          ...................................................
          :                      SETUP                      :
          :.................................................:
          :  # basis functions                 114          :
          :  # atomic orbitals                 114          :
          :  # shells                           68          :
          :  # electrons                       120          :
          :  max. iterations                   250          :
          :  Hamiltonian                  GFN2-xTB          :
          :  restarted?                      false          :
          :  GBSA solvation                   true          :
          :  PC potential                    false          :
          :  electronic temp.          300.0000000     K    :
          :  accuracy                    1.0000000          :
          :  -> integral cutoff          0.2500000E+02      :
          :  -> integral neglect         0.1000000E-07      :
          :  -> SCF convergence          0.1000000E-05 Eh   :
          :  -> wf. convergence          0.1000000E-03 e    :
          :  Broyden damping             0.4000000          :
          :  net charge                          0          :
          :  unpaired electrons                  0          :
          ...................................................

 iter      E             dE          RMSdq      gap      omega  full diag
   1    -67.2631404 -0.672631E+02  0.547E-05    2.53       0.0  T
   2    -67.2631404 -0.394351E-10  0.337E-05    2.53     442.6  T
   3    -67.2631404 -0.206484E-10  0.194E-05    2.53     767.0  T

   *** convergence criteria satisfied after 3 iterations ***

         #    Occupation            Energy/Eh            Energy/eV
      -------------------------------------------------------------
         1        2.0000           -0.7245001             -19.7147
       ...           ...                  ...                  ...
        54        2.0000           -0.4143989             -11.2764
        55        2.0000           -0.4132019             -11.2438
        56        2.0000           -0.4090318             -11.1303
        57        2.0000           -0.4068215             -11.0702
        58        2.0000           -0.3918347             -10.6624
        59        2.0000           -0.3877800             -10.5520
        60        2.0000           -0.3820183             -10.3952 (HOMO)
        61                         -0.2891524              -7.8682 (LUMO)
        62                         -0.2386805              -6.4948
        63                         -0.2308694              -6.2823
        64                         -0.2238181              -6.0904
        65                         -0.1993962              -5.4258
       ...                                ...                  ...
       114                          0.6749381              18.3660
      -------------------------------------------------------------
                  HL-Gap            0.0928659 Eh            2.5270 eV
             Fermi-level           -0.3355854 Eh           -9.1317 eV

 SCC (total)                   0 d,  0 h,  0 min,  0.023 sec
 SCC setup                      ...        0 min,  0.001 sec (  3.621%)
 Dispersion                     ...        0 min,  0.000 sec (  2.211%)
 classical contributions        ...        0 min,  0.000 sec (  0.448%)
 integral evaluation            ...        0 min,  0.003 sec ( 13.768%)
 iterations                     ...        0 min,  0.008 sec ( 33.291%)
 molecular gradient             ...        0 min,  0.010 sec ( 44.408%)
 printout                       ...        0 min,  0.000 sec (  2.162%)

         :::::::::::::::::::::::::::::::::::::::::::::::::::::
         ::                     SUMMARY                     ::
         :::::::::::::::::::::::::::::::::::::::::::::::::::::
         :: total energy             -66.261671979530 Eh    ::
         :: total w/o Gsasa/hb       -66.238468168238 Eh    ::
         :: gradient norm              0.000291821008 Eh/a0 ::
         :: HOMO-LUMO gap              2.527011031003 eV    ::
         ::.................................................::
         :: SCC energy               -67.263533025542 Eh    ::
         :: -> isotropic ES            0.077968315156 Eh    ::
         :: -> anisotropic ES          0.004721328522 Eh    ::
         :: -> anisotropic XC          0.026349302423 Eh    ::
         :: -> dispersion             -0.044592665528 Eh    ::
         :: -> Gsolv                  -0.030444631459 Eh    ::
         ::    -> Gelec               -0.007240820168 Eh    ::
         ::    -> Gsasa               -0.023613495244 Eh    ::
         ::    -> Ghb                 -0.003001579682 Eh    ::
         ::    -> Gshift               0.003411263635 Eh    ::
         :: repulsion energy           1.001861046013 Eh    ::
         :: add. restraining           0.000000000000 Eh    ::
         :: total charge              -0.000000000000 e     ::
         :::::::::::::::::::::::::::::::::::::::::::::::::::::

           -------------------------------------------------
          |                Property Printout                |
           -------------------------------------------------

    * Orbital Energies and Occupations

         #    Occupation            Energy/Eh            Energy/eV
      -------------------------------------------------------------
         1        2.0000           -0.7245001             -19.7147
       ...           ...                  ...                  ...
        48        2.0000           -0.4511206             -12.2756
        49        2.0000           -0.4482337             -12.1971
        50        2.0000           -0.4369348             -11.8896
        51        2.0000           -0.4345397             -11.8244
        52        2.0000           -0.4253813             -11.5752
        53        2.0000           -0.4191015             -11.4043
        54        2.0000           -0.4143989             -11.2764
        55        2.0000           -0.4132019             -11.2438
        56        2.0000           -0.4090318             -11.1303
        57        2.0000           -0.4068215             -11.0702
        58        2.0000           -0.3918347             -10.6624
        59        2.0000           -0.3877800             -10.5520
        60        2.0000           -0.3820183             -10.3952 (HOMO)
        61                         -0.2891524              -7.8682 (LUMO)
        62                         -0.2386805              -6.4948
        63                         -0.2308694              -6.2823
        64                         -0.2238181              -6.0904
        65                         -0.1993962              -5.4258
        66                         -0.1494482              -4.0667
        67                         -0.0906689              -2.4672
        68                         -0.0806876              -2.1956
        69                          0.0217310               0.5913
        70                          0.0691168               1.8808
        71                          0.0744143               2.0249
       ...                                ...                  ...
       114                          0.6749381              18.3660
      -------------------------------------------------------------
                  HL-Gap            0.0928659 Eh            2.5270 eV
             Fermi-level           -0.3355854 Eh           -9.1317 eV

     #   Z          covCN         q      C6AA      α(0)
     1   6 C        3.761    -0.115    22.747     6.799
     2   6 C        3.902     0.026    20.082     6.370
     3   6 C        3.761    -0.112    22.687     6.790
     4   6 C        3.762    -0.112    22.683     6.789
     5   6 C        2.973     0.018    27.611     8.619
     6   6 C        2.925    -0.035    28.878     8.813
     7   6 C        2.924    -0.027    28.674     8.781
     8   6 C        2.973    -0.005    28.149     8.703
     9   6 C        2.921    -0.035    28.875     8.812
    10   6 C        2.923    -0.040    28.985     8.829
    11   6 C        2.832     0.175    24.237     8.068
    12   8 O        1.656    -0.390    20.649     6.134
    13   6 C        2.897    -0.132    31.380     9.185
    14   6 C        2.831     0.215    23.459     7.937
    15   8 O        0.858    -0.501    23.814     6.543
    16   6 C        2.970    -0.026    28.653     8.780
    17   6 C        2.920    -0.032    28.793     8.799
    18   6 C        2.918    -0.059    29.454     8.900
    19   6 C        2.864     0.150    24.741     8.153
    20   8 O        1.705    -0.276    18.571     5.818
    21   6 C        3.642     0.022    20.557     6.519
    22   6 C        2.914    -0.069    29.713     8.939
    23   6 C        2.928    -0.022    28.562     8.764
    24   1 H        0.925     0.043     2.410     2.428
    25   1 H        0.925     0.040     2.446     2.446
    26   1 H        0.925     0.040     2.450     2.448
    27   1 H        0.925     0.040     2.443     2.444
    28   1 H        0.925     0.037     2.495     2.470
    29   1 H        0.925     0.045     2.389     2.417
    30   1 H        0.925     0.040     2.445     2.445
    31   1 H        0.925     0.037     2.491     2.468
    32   1 H        0.925     0.045     2.383     2.414
    33   1 H        0.926     0.044     2.401     2.423
    34   1 H        0.926     0.051     2.312     2.378
    35   1 H        0.926     0.043     2.409     2.427
    36   1 H        0.926     0.053     2.283     2.363
    37   1 H        0.800     0.369     0.547     1.162
    38   1 H        0.926     0.052     2.292     2.368
    39   1 H        0.926     0.053     2.285     2.364
    40   1 H        0.926     0.059     2.213     2.326
    41   1 H        0.925     0.079     1.987     2.205
    42   1 H        0.924     0.055     2.257     2.349
    43   1 H        0.924     0.055     2.262     2.352
    44   1 H        0.926     0.051     2.307     2.375
    45   1 H        0.926     0.051     2.303     2.373

 Mol. C6AA /au·bohr⁶  :      22194.051622
 Mol. C8AA /au·bohr⁸  :     528101.168494
 Mol. α(0) /au        :        233.286662


Wiberg/Mayer (AO) data.
largest (>0.10) Wiberg bond orders for each atom

 ---------------------------------------------------------------------------
     #   Z sym  total        # sym  WBO       # sym  WBO       # sym  WBO
 ---------------------------------------------------------------------------
     1   6 C    3.995 --     2 C    1.000    26 H    0.984    25 H    0.984
                            24 H    0.984
     2   6 C    3.991 --     1 C    1.000     5 C    0.987     3 C    0.986
                             4 C    0.984
     3   6 C    3.993 --    28 H    0.987     2 C    0.986    29 H    0.984
                            27 H    0.983
     4   6 C    3.993 --    31 H    0.987     2 C    0.984    30 H    0.984
                            32 H    0.984
     5   6 C    3.974 --    10 C    1.404     6 C    1.393     2 C    0.987
     6   6 C    3.990 --     7 C    1.472     5 C    1.393    33 H    0.964
                             9 C    0.103
     7   6 C    3.987 --     6 C    1.472     8 C    1.364    34 H    0.967
     8   6 C    3.986 --     9 C    1.375     7 C    1.364    11 C    1.065
     9   6 C    3.988 --    10 C    1.460     8 C    1.375    35 H    0.966
                             6 C    0.103
    10   6 C    3.990 --     9 C    1.460     5 C    1.404    36 H    0.964
    11   6 C    3.928 --    13 C    1.522    12 O    1.196     8 C    1.065
    12   8 O    2.204 --    11 C    1.196    37 H    0.764    13 C    0.101
    13   6 C    3.967 --    11 C    1.522    14 C    1.191    38 H    0.961
                            12 O    0.101
    14   6 C    3.931 --    15 O    1.574    13 C    1.191    16 C    1.043
    15   8 O    1.975 --    14 C    1.574
    16   6 C    3.986 --    23 C    1.379    17 C    1.355    14 C    1.043
    17   6 C    3.988 --    18 C    1.496    16 C    1.355    39 H    0.963
    18   6 C    3.986 --    17 C    1.496    19 C    1.330    40 H    0.967
    19   6 C    3.930 --    22 C    1.359    18 C    1.330    20 O    1.083
    20   8 O    2.234 --    19 C    1.083    21 C    0.971
    21   6 C    3.932 --    41 H    0.978    43 H    0.976    42 H    0.976
                            20 O    0.971
    22   6 C    3.986 --    23 C    1.463    19 C    1.359    44 H    0.964
    23   6 C    3.987 --    22 C    1.463    16 C    1.379    45 H    0.967
    24   1 H    0.998 --     1 C    0.984
    25   1 H    0.998 --     1 C    0.984
    26   1 H    0.998 --     1 C    0.984
    27   1 H    0.998 --     3 C    0.983
    28   1 H    0.999 --     3 C    0.987
    29   1 H    0.997 --     3 C    0.984
    30   1 H    0.998 --     4 C    0.984
    31   1 H    0.999 --     4 C    0.987
    32   1 H    0.997 --     4 C    0.984
    33   1 H    0.998 --     6 C    0.964
    34   1 H    0.997 --     7 C    0.967
    35   1 H    0.998 --     9 C    0.966
    36   1 H    0.997 --    10 C    0.964
    37   1 H    0.863 --    12 O    0.764
    38   1 H    0.997 --    13 C    0.961
    39   1 H    0.997 --    17 C    0.963
    40   1 H    0.996 --    18 C    0.967
    41   1 H    0.993 --    21 C    0.978
    42   1 H    0.996 --    21 C    0.976
    43   1 H    0.996 --    21 C    0.976
    44   1 H    0.997 --    22 C    0.964
    45   1 H    0.997 --    23 C    0.967
 ---------------------------------------------------------------------------

Topologies differ in total number of bonds
Writing topology from bond orders to xtbtopo.mol

molecular dipole:
                 x           y           z       tot (Debye)
 q only:       -1.064       0.965      -0.765
   full:       -0.769       1.027      -0.865       3.932
molecular quadrupole (traceless):
                xx          xy          yy          xz          yz          zz
 q only:       18.801      10.992     -11.345     -17.092      -7.104      -7.455
  q+dip:       23.290      12.104     -12.630     -18.120      -9.283     -10.661
   full:       20.834      12.203     -11.151     -17.708      -5.724      -9.683

           -------------------------------------------------
          |                Geometry Summary                 |
           -------------------------------------------------

      molecular mass/u    :      310.3876293
   center of mass at/Å    :        0.3595793       0.8478680      -1.3007051
  moments of inertia/u·Å² :        0.7218464E+03   0.6420903E+04   0.6969835E+04
rotational constants/cm⁻¹ :        0.2335349E-01   0.2625430E-02   0.2418656E-02

 * 41 selected distances

     #   Z          #   Z                                           value/Å
     1   6 C        2   6 C                                       1.5318519
     2   6 C        3   6 C                                       1.5362714
     2   6 C        4   6 C                                       1.5365723 (max)
     5   6 C        6   6 C                                       1.3948085
     6   6 C        7   6 C                                       1.3783297
     7   6 C        8   6 C                                       1.3960488
     8   6 C        9   6 C                                       1.3933194
     5   6 C       10   6 C                                       1.3919792
     9   6 C       10   6 C                                       1.3819960
    11   6 C       12   8 O                                       1.3278130
    11   6 C       13   6 C                                       1.3698493
    16   6 C       17   6 C                                       1.3974448
    17   6 C       18   6 C                                       1.3754714
    18   6 C       19   6 C                                       1.3992259
    19   6 C       20   8 O                                       1.3552278
    20   8 O       21   6 C                                       1.4147636
    19   6 C       22   6 C                                       1.3933154
    16   6 C       23   6 C                                       1.3942810
    22   6 C       23   6 C                                       1.3801287
     1   6 C       24   1 H                                       1.0879549
     1   6 C       25   1 H                                       1.0874662
     1   6 C       26   1 H                                       1.0876183
     3   6 C       27   1 H                                       1.0860985
     3   6 C       28   1 H                                       1.0879935
     3   6 C       29   1 H                                       1.0877128
     4   6 C       30   1 H                                       1.0864798
     4   6 C       31   1 H                                       1.0881652
     4   6 C       32   1 H                                       1.0876756
     6   6 C       33   1 H                                       1.0791708
     7   6 C       34   1 H                                       1.0796074
     9   6 C       35   1 H                                       1.0790595
    10   6 C       36   1 H                                       1.0773731
    12   8 O       37   1 H                                       1.0007934 (min)
    13   6 C       38   1 H                                       1.0730049
    17   6 C       39   1 H                                       1.0783782
    18   6 C       40   1 H                                       1.0787597
    21   6 C       41   1 H                                       1.0883681
    21   6 C       42   1 H                                       1.0934817
    21   6 C       43   1 H                                       1.0934715
    22   6 C       44   1 H                                       1.0780632
    23   6 C       45   1 H                                       1.0806373

 * 4 distinct bonds (by element types)

   Z      Z             #   av. dist./Å        max./Å        min./Å
   1 H    6 C          21     1.0841210     1.0934817     1.0730049
   6 C    6 C          16     1.4156809     1.5365723     1.3698493
   1 H    8 O           1     1.0007934     1.0007934     1.0007934
   6 C    8 O           3     1.3659348     1.4147636     1.3278130


optimized geometry written to: xtbopt.xyz


           -------------------------------------------------
          | TOTAL ENERGY              -66.261671979530 Eh   |
          | GRADIENT NORM               0.000291821008 Eh/α |
          | HOMO-LUMO GAP               2.527011031003 eV   |
           -------------------------------------------------

------------------------------------------------------------------------
Note: The following floating-point exceptions are signalling: IEEE_UNDERFLOW_FLAG IEEE_DENORMAL
normal termination of xtb
 * finished run on 2026/07/20 at 15:32:09.819     
------------------------------------------------------------------------
 total:
 * wall-time:     0 d,  0 h,  0 min,  1.696 sec
 *  cpu-time:     0 d,  0 h,  0 min,  6.625 sec
 * ratio c/w:     3.906 speedup
 SCF:
 * wall-time:     0 d,  0 h,  0 min,  0.109 sec
 *  cpu-time:     0 d,  0 h,  0 min,  0.281 sec
 * ratio c/w:     2.571 speedup
 ANC optimizer:
 * wall-time:     0 d,  0 h,  0 min,  1.515 sec
 *  cpu-time:     0 d,  0 h,  0 min,  6.234 sec
 * ratio c/w:     4.114 speedup

