
                                 *****************
                                 * O   R   C   A *
                                 *****************

                                            #,                                       
                                            ###                                      
                                            ####                                     
                                            #####                                    
                                            ######                                   
                                           ########,                                 
                                     ,,################,,,,,                         
                               ,,#################################,,                 
                          ,,##########################################,,             
                       ,#########################################, ''#####,          
                    ,#############################################,,   '####,        
                  ,##################################################,,,,####,       
                ,###########''''           ''''###############################       
              ,#####''   ,,,,##########,,,,          '''####'''          '####       
            ,##' ,,,,###########################,,,                        '##       
           ' ,,###''''                  '''############,,,                           
         ,,##''                                '''############,,,,        ,,,,,,###''
      ,#''                                            '''#######################'''  
     '                                                          ''''####''''         
             ,#######,   #######,   ,#######,      ##                                
            ,#'     '#,  ##    ##  ,#'     '#,    #''#        ,####,    ,#,          
            ##       ##  ##   ,#'  ##            #'  '#       #'       ,# #          
            ##       ##  #######   ##           ,######,      #####,      #          
            '#,     ,#'  ##    ##  '#,     ,#' ,#      #,     #,   #      #          
             '#######'   ##     ##  '#######'  #'      '#     '####' #    #          



                #########################################################
                #                        -***-                          #
                #          Department of theory and spectroscopy        #
                #                                                       #
                #                      Frank Neese                      #
                #                                                       #
                #     Directorship, Architecture, Infrastructure        #
                #                    SHARK, DRIVERS                     #
                #        Core code/Algorithms in most modules           #
                #                                                       #
                #        Max Planck Institute fuer Kohlenforschung      #
                #                Kaiser Wilhelm Platz 1                 #
                #                 D-45470 Muelheim/Ruhr                 #
                #                      Germany                          #
                #                                                       #
                #                  All rights reserved                  #
                #                        -***-                          #
                #########################################################


                         Program Version 6.1.1  -  RELEASE   -


 With contributions from (in alphabetic order):
[Max-Planck-Institut fuer Kohlenforschung]                               
  Daniel Aravena         : Magnetic Suceptibility                        
  Michael Atanasov       : Ab Initio Ligand Field Theory (pilot matlab implementation)
  Alexander A. Auer      : GIAO ZORA, VPT2 properties, NMR spectrum      
  Ute Becker             : All parallelization in ORCA, NUMFREQ, NUMCALC 
  Giovanni Bistoni       : ED, misc. LED, open-shell LED, HFLD           
  Dmytro Bykov           : pre 5.0 version of the SCF Hessian            
  Marcos Casanova-Páez   : Triplet and SCS-CIS(D). UHF-(DLPNO)-IP/EA/STEOM-CCSD. UHF-CVS-IP/STEOM-CCSD   
  Vijay G. Chilkuri      : MRCI spin determinant printing, contributions to CSF-ICE 
  Pauline Colinet        : FMM embedding                                 
  Dipayan Datta          : RHF DLPNO-CCSD density                        
  Achintya Kumar Dutta   : EOM-CC, STEOM-CC                              
  Nicolas Foglia         : Exact transition moments, OPA infrastructure, MCD improvements    
  Dmitry Ganyushin       : Spin-Orbit,Spin-Spin,Magnetic field MRCI      
  Miquel Garcia-Rates    : C-PCM and meta-GGA Hessian, CCSD/C-PCM, Gaussian charge scheme 
  Tiago L. C. Gouveia    : GS-ROHF, GS-ROCIS                             
  Yang Guo               : DLPNO-NEVPT2, F12-NEVPT2, CIM, IAO-localization        
  Andreas Hansen         : Spin unrestricted coupled pair/coupled cluster methods 
  Ingolf Harden          : AUTO-CI MPn and infrastructure                
  Benjamin Helmich-Paris : MC-RPA, TRAH-(SCF,CASSCF), AVAS, COSX integrals, SCF dyn. polar., MC-PDFT, srDFT 
  Lee Huntington         : MR-EOM, pCC                                   
  Robert Izsak           : Overlap fitted RIJCOSX, COSX-SCS-MP3, EOM     
  Riya Kayal             : Wick's Theorem for AUTO-CI, AUTO-CI UHF-CCSDT 
  Emily Kempfer          : AUTO-CI RHF CISDT and CCSDT, approximate NEVPT4
  Christian Kollmar      : KDIIS, OOCD, Brueckner-CCSD(T), CCSD density, CASPT2, CASPT2-K, improved NEVPT2 
  Axel Koslowski         : Symmetry handling                             
  Simone Kossmann        : meta-GGA functionals, TD-DFT gradient, OOMP2, (MP2 Hessian; deprecated post 5.0) 
  Lucas Lang             : DCDCAS, Hyperfine gauge corrections, ICE-SOC+SSC
  Marvin Lechner         : AUTO-CI (C++ implementation), FIC-MRCC        
  Spencer Leger          : CASSCF response                               
  Dagmar Lenk            : GEPOL surface, SMD, ORCA-2-JSON               
  Dimitrios Liakos       : Extrapolation schemes; Compound Job, Property file
  Dimitrios Manganas     : Further ROCIS development; embedding schemes. LFT, Crystal Embedding 
  Dimitrios Pantazis     : SARC Basis sets                               
  Anastasios Papadopoulos: AUTO-CI, single reference methods and gradients 
  Taras Petrenko         : pre 6.0 DFT Hessian and TD-DFT gradient,  ECA, NRVS 
  Petra Pikulova         : Analytic Raman intensities                    
  Peter Pinski           : DLPNO-MP2, DLPNO-MP2 Gradient                 
  Shashank Vittal Rao    : ES-AILFT, MagRelax                            
  Christoph Reimann      : Effective Core Potentials                     
  Marius Retegan         : Local ZFS, SOC                                
  Christoph Riplinger    : Optimizer, TS searches, QM/MM, DLPNO-CCSD(T), (RO)-DLPNO pert. Triples 
  Michael Roemelt        : Original ROCIS implementation, recursive CI coupling coefficients
  Masaaki Saitow         : Open-shell DLPNO-CCSD energy and density      
  Barbara Sandhoefer     : DKH picture change effects                    
  Yorick L. A. Schmerwitz: GMF and freeze-and-release deltaSCF, NEB S-IDPP initial path                    
  Kantharuban Sivalingam : CASSCF convergence/infrastructure, NEVPT2, NEVPT3, NEVPT4(SD), FIC-MRCI and CEPA variants
  Bernardo de Souza      : ESD, SOC TD-DFT                               
  Georgi L. Stoychev     : AutoAux, RI-MP2 NMR, DLPNO-MP2 response, X2C  
  Van Anh Tran           : RI-MP2 g-tensors                              
  Willem Van den Heuvel  : Paramagnetic NMR                              
  Zikuan Wang            : NOTCH, Electric field optimization            
  Frank Wennmohs         : Technical directorship and infrastructure     
  Hang Xu                : AUTO-CI-Response properties                   
                                                                         
[FACCTs GmbH]                                                            
  Markus Bursch, Nicolas Foglia, Miquel Garcia-Rates, Ingolf Harden, Hagen Neugebauer, Anastasios Papadopoulos, 
  Christoph Riplinger, Bernardo de Souza, Georgi L. Stoychev                                                    
                                                                 
  APM, various basis sets, CI-OPT, improved COSX, DLPNO-Multilevel,           
  DOCKER, DRACO, updates on ESD, Fragmentator, GOAT, IRC, LR-CPCM, L-BFGS, MBIS, meta-GGA TD-DFT gradient, ML-optimized integration grids, 
  MM, NACMEs, nearIR, NEB, NEB-TS, NL-DFT gradient (VV10), 2- and 3-layer-ONIOM, interface openCOSMO-RS, QMMM,   
  Crystal-QMMM, RESP, rigid body optimization, SF, symmetry and pop. for TD-DFT, various functionals, SOLVATOR                                   
                                                                         
[Other institutions]                                                     
  V. Asgeirsson          : NEB                                           
  Christoph Bannwarth    : sTDA-DFT, sTD-DFT, PBEh-3c, B97-3c, D3        
  Giovanni Bistoni       : ETS/NOCV, ADLD/ADEX, COVALED                  
  Martin Brehm           : Molecular dynamics                            
  Ronald Cardenas        : ETS/NOCV                                      
  Martina Colucci        : COVALED                                       
  Sebastian Ehlert       : rSCAN, r2SCAN, r2SCAN-3c, D4, dhf basis sets  
  Marvin Friede          : D4 for Fr, Ra, Ac-Lr                          
  Lars Goerigk           : TD-DFT with DH, B97 family of functionals     
  Stefan Grimme          : VdW corrections, initial TS optimization, DFT functionals, gCP, sTDA/sTD-DF 
  Waldemar Hujo          : DFT-NL                                        
  H. Jonsson             : NEB                                           
  Holger Kruse           : gCP                                           
  Marcel Mueller         : wB97X-3c, vDZP basis set                      
  Hagen Neugebauer       : wr2SCAN, Native XTB                           
  Gianluca Regni         : ADLD/ADEX                                     
  Tobias Risthaus        : pre 6.0 range-separated hybrid DFT and stability analysis
  Lukas Wittmann         : regularized MP2, r2SCAN double-hybrids, wr2SCAN        
                                                                         
We gratefully acknowledge several colleagues who have allowed us to      
interface, adapt or use parts of their codes:                            
  Ed Valeev, F. Pavosevic, A. Kumar             : LibInt (2-el integral package), F12 methods 
  Garnet Chan, S. Sharma, J. Yang, R. Olivares  : DMRG                   
  Ulf Ekstrom                                   : XCFun DFT Library      
  Mihaly Kallay                                 : mrcc  (arbitrary order and MRCC methods)
  Frank Weinhold                                : gennbo (NPA and NBO analysis)           
  Simon Mueller                                 : openCOSMO-RS                            
  Christopher J. Cramer and Donald G. Truhlar   : smd solvation model                     
  S Lehtola, MJT Oliveira, MAL Marques          : LibXC Library                           
  Liviu Ungur et al                             : ANISO software                          


 Your calculation uses the libint2 library for the computation of 2-el integrals
 For citations please refer to: http://libint.valeyev.net

 Your ORCA version has been built with support for libXC version: 7.0.0
 For citations please refer to: https://libxc.gitlab.io

 This ORCA versions uses:
   CBLAS   interface :  Fast vector & matrix operations
   LAPACKE interface :  Fast linear algebra routines
   Shared memory     :  Shared parallel matrices


  ***********************************
  * Starting time: Thu Jul 23 13:57:39 2026
  * Host name:     DESKTOP-19Q153E
  * Process ID:    40296
  * Working dir.:  C:\Users\ysm04\Documents\etc\uv_vis\molecules\dhhb\calculations\02_tddft_orca\dhhb\dhhb_c000\b3lyp_631+gd\ethanol\dftopt
  ***********************************

NOTE: MaxCore=2500 MB was set to SCF,MP2,MDCI,CIPSI,MRCI,RASCI and CIS
      => If you want to overwrite this, your respective input block should be placed after the MaxCore statement
================================================================================

----- Orbital basis set information -----
Your calculation utilizes the basis: 6-31+G(d)
   H-He, Li-Ne : W. J. Hehre, R. Ditchfield and J.A. Pople, J. Chem. Phys. 56, 2257 (1972).
                 Note: He and Ne are unpublished basis sets taken from the Gaussian program.
                 Note: Li and B from J. D. Dill and J. A. Pople, J. Chem. Phys. 62, 2921 (1975).
   Na - Ar     : M. M. Francl, W. J. Pietro, W. J. Hehre, J. S. Binkley, M. S. Gordon, 
                 D. J. DeFrees and J. A. Pople, J. Chem. Phys. 77, 3654 (1982).
   K - Zn      : V. A. Rassolov, J. A. Pople, M. A. Ratner, and T. L. Windus, J. Chem. Phys. 109, 1223 (1998).
   Additional Pol./Diff. from the 6-311G equivalent.

----- AuxJ basis set information -----
Your calculation utilizes the auxiliary basis: def2/J
   H-Rn: F. Weigend, Phys. Chem. Chem. Phys. 8, 1057 (2006).
   Fr-Lr: K. Eichkorn, F. Weigend, O. Treutler, R. Ahlrichs; Theor. Chem. Acc. 97, 119 (1997).

================================================================================
                                        WARNINGS
                       Please study these warnings very carefully!
================================================================================


WARNING: CIS/ROCIS methods need fully converged wavefunctions
  ===> : Setting SCFConvForced true
         You can overwrite this default with %scf ConvForced false 


================================================================================
                                       INPUT FILE
================================================================================
NAME = td.inp
|  1> # dhhb / dhhb_c000 / b3lyp_631+gd / solvent=ethanol
|  2> ! B3LYP 6-31+G(d) RIJCOSX def2/J TightSCF CPCM(Ethanol)
|  3> %pal nprocs 4 end
|  4> %maxcore 2500
|  5> %scf
|  6>   MaxIter 300
|  7> end
|  8> %tddft
|  9>   nroots 22
| 10>   tda    true
| 11>   maxdim 5
| 12> end
| 13> * xyz 0 1
| 14> C      9.5261718999     2.7208034759     1.6177301841
| 15> C      9.0445719823     1.8643892892     0.4446025321
| 16> C      7.5759498836     1.4424462878     0.5587394159
| 17> C      7.0854451892     0.5880402419    -0.6146714059
| 18> C      5.6154078525     0.1738224609    -0.4902197906
| 19> C      5.1473788697    -0.6622640989    -1.6751284784
| 20> O      3.7358992751    -0.9567656889    -1.5912222216
| 21> C      3.3500364032    -2.0557929160    -0.9294354029
| 22> O      4.1221350598    -2.8365206144    -0.4088989363
| 23> C      1.8626464350    -2.2174148461    -0.9042985597
| 24> C      1.3261214158    -3.3485501121    -0.2657130569
| 25> C     -0.0520000697    -3.5411344471    -0.2181274050
| 26> C     -0.9257801778    -2.5915742836    -0.7796338974
| 27> C     -0.3860450790    -1.4659784064    -1.4260739458
| 28> C      0.9964476435    -1.2831997924    -1.4942540720
| 29> C     -2.4022540883    -2.8778234502    -0.7491140265
| 30> O     -2.7562313872    -4.0411953310    -1.0503603848
| 31> C     -3.3704158548    -1.8631913765    -0.3775765391
| 32> C     -3.0323088009    -0.5806068434     0.1315658125
| 33> C     -3.9796269441     0.3577219274     0.4780670831
| 34> C     -5.3805474431     0.0779892540     0.3322947555
| 35> C     -5.7357545853    -1.2072473795    -0.1510999882
| 36> C     -4.7727857760    -2.1602866327    -0.4827198481
| 37> O     -5.1887023909    -3.3582145546    -0.9091782097
| 38> N     -6.3268769373     1.0068874550     0.6613051138
| 39> C     -5.9749375669     2.3649671658     1.0872360378
| 40> C     -5.7628059400     2.5068546763     2.5965244252
| 41> C     -7.7602083018     0.7063638677     0.6058303965
| 42> C     -8.3938802912     0.9556790056    -0.7654861283
| 43> H      9.4273112628     2.1802110501     2.5747826487
| 44> H     10.5849910079     3.0056543398     1.5035431798
| 45> H      8.9374892014     3.6504643525     1.7018963811
| 46> H      9.6760874905     0.9603890334     0.3632456488
| 47> H      9.1893089514     2.4189692834    -0.5010297611
| 48> H      6.9423180702     2.3456348366     0.6406551278
| 49> H      7.4291098850     0.8839457455     1.5023897532
| 50> H      7.7164171920    -0.3163889518    -0.6968918291
| 51> H      7.2298957116     1.1465958705    -1.5582476049
| 52> H      5.4679980051    -0.4037149249     0.4386605598
| 53> H      4.9766286386     1.0714428862    -0.4151078362
| 54> H      5.7072625615    -1.6065152375    -1.7423311045
| 55> H      5.2625787672    -0.1094282424    -2.6187732515
| 56> H      2.0048198913    -4.0742030314     0.1868659705
| 57> H     -0.4655438483    -4.4295183871     0.2641649135
| 58> H     -1.0456382418    -0.7376858687    -1.9019839628
| 59> H      1.4057798784    -0.4118989226    -2.0070864936
| 60> H     -1.9814731288    -0.3290408896     0.2828767319
| 61> H     -3.6449225385     1.3092994117     0.8864917756
| 62> H     -6.7753068956    -1.5011066268    -0.2850439699
| 63> H     -4.3596138802    -3.9025402101    -1.0466263633
| 64> H     -5.0831176096     2.7017945353     0.5389191307
| 65> H     -6.7921586217     3.0287790371     0.7644126995
| 66> H     -6.6649258010     2.2057725279     3.1533723642
| 67> H     -4.9228831346     1.8854507694     2.9453969502
| 68> H     -5.5408364444     3.5561465046     2.8504418400
| 69> H     -8.2545465113     1.3359323482     1.3619517925
| 70> H     -7.9284018355    -0.3333272572     0.9243131085
| 71> H     -8.2645382662     2.0051635433    -1.0760765842
| 72> H     -9.4745738651     0.7430688311    -0.7266329770
| 73> H     -7.9465661675     0.3121213436    -1.5392322973
| 74> *
| 75> 
| 76>                          ****END OF INPUT****
================================================================================

                       ****************************
                       * Single Point Calculation *
                       ****************************

---------------------------------
CARTESIAN COORDINATES (ANGSTROEM)
---------------------------------
  C      9.526172    2.720803    1.617730
  C      9.044572    1.864389    0.444603
  C      7.575950    1.442446    0.558739
  C      7.085445    0.588040   -0.614671
  C      5.615408    0.173822   -0.490220
  C      5.147379   -0.662264   -1.675128
  O      3.735899   -0.956766   -1.591222
  C      3.350036   -2.055793   -0.929435
  O      4.122135   -2.836521   -0.408899
  C      1.862646   -2.217415   -0.904299
  C      1.326121   -3.348550   -0.265713
  C     -0.052000   -3.541134   -0.218127
  C     -0.925780   -2.591574   -0.779634
  C     -0.386045   -1.465978   -1.426074
  C      0.996448   -1.283200   -1.494254
  C     -2.402254   -2.877823   -0.749114
  O     -2.756231   -4.041195   -1.050360
  C     -3.370416   -1.863191   -0.377577
  C     -3.032309   -0.580607    0.131566
  C     -3.979627    0.357722    0.478067
  C     -5.380547    0.077989    0.332295
  C     -5.735755   -1.207247   -0.151100
  C     -4.772786   -2.160287   -0.482720
  O     -5.188702   -3.358215   -0.909178
  N     -6.326877    1.006887    0.661305
  C     -5.974938    2.364967    1.087236
  C     -5.762806    2.506855    2.596524
  C     -7.760208    0.706364    0.605830
  C     -8.393880    0.955679   -0.765486
  H      9.427311    2.180211    2.574783
  H     10.584991    3.005654    1.503543
  H      8.937489    3.650464    1.701896
  H      9.676087    0.960389    0.363246
  H      9.189309    2.418969   -0.501030
  H      6.942318    2.345635    0.640655
  H      7.429110    0.883946    1.502390
  H      7.716417   -0.316389   -0.696892
  H      7.229896    1.146596   -1.558248
  H      5.467998   -0.403715    0.438661
  H      4.976629    1.071443   -0.415108
  H      5.707263   -1.606515   -1.742331
  H      5.262579   -0.109428   -2.618773
  H      2.004820   -4.074203    0.186866
  H     -0.465544   -4.429518    0.264165
  H     -1.045638   -0.737686   -1.901984
  H      1.405780   -0.411899   -2.007086
  H     -1.981473   -0.329041    0.282877
  H     -3.644923    1.309299    0.886492
  H     -6.775307   -1.501107   -0.285044
  H     -4.359614   -3.902540   -1.046626
  H     -5.083118    2.701795    0.538919
  H     -6.792159    3.028779    0.764413
  H     -6.664926    2.205773    3.153372
  H     -4.922883    1.885451    2.945397
  H     -5.540836    3.556147    2.850442
  H     -8.254547    1.335932    1.361952
  H     -7.928402   -0.333327    0.924313
  H     -8.264538    2.005164   -1.076077
  H     -9.474574    0.743069   -0.726633
  H     -7.946566    0.312121   -1.539232

----------------------------
CARTESIAN COORDINATES (A.U.)
----------------------------
  NO LB      ZA    FRAG     MASS         X           Y           Z
   0 C     6.0000    0    12.011   18.001856    5.141573    3.057067
   1 C     6.0000    0    12.011   17.091764    3.523185    0.840177
   2 C     6.0000    0    12.011   14.316470    2.725828    1.055864
   3 C     6.0000    0    12.011   13.389551    1.111235   -1.161561
   4 C     6.0000    0    12.011   10.611583    0.328477   -0.926381
   5 C     6.0000    0    12.011    9.727136   -1.251498   -3.165534
   6 O     8.0000    0    15.999    7.059826   -1.808025   -3.006974
   7 C     6.0000    0    12.011    6.330651   -3.884886   -1.756378
   8 O     8.0000    0    15.999    7.789706   -5.360247   -0.772707
   9 C     6.0000    0    12.011    3.519892   -4.190307   -1.708877
  10 C     6.0000    0    12.011    2.506006   -6.327843   -0.502125
  11 C     6.0000    0    12.011   -0.098266   -6.691774   -0.412201
  12 C     6.0000    0    12.011   -1.749471   -4.897366   -1.473295
  13 C     6.0000    0    12.011   -0.729519   -2.770298   -2.694889
  14 C     6.0000    0    12.011    1.883013   -2.424896   -2.823731
  15 C     6.0000    0    12.011   -4.539602   -5.438298   -1.415620
  16 O     8.0000    0    15.999   -5.208522   -7.636752   -1.984893
  17 C     6.0000    0    12.011   -6.369163   -3.520921   -0.713516
  18 C     6.0000    0    12.011   -5.730233   -1.097188    0.248623
  19 C     6.0000    0    12.011   -7.520405    0.675996    0.903416
  20 C     6.0000    0    12.011  -10.167761    0.147378    0.627946
  21 C     6.0000    0    12.011  -10.839005   -2.281367   -0.285538
  22 C     6.0000    0    12.011   -9.019258   -4.082350   -0.912208
  23 O     8.0000    0    15.999   -9.805227   -6.346106   -1.718098
  24 N     7.0000    0    14.007  -11.956065    1.902742    1.249686
  25 C     6.0000    0    12.011  -11.290996    4.469140    2.054578
  26 C     6.0000    0    12.011  -10.890125    4.737269    4.906720
  27 C     6.0000    0    12.011  -14.664668    1.334834    1.144854
  28 C     6.0000    0    12.011  -15.862135    1.805972   -1.446559
  29 H     1.0000    0     1.008   17.815036    4.120002    4.865634
  30 H     1.0000    0     1.008   20.002734    5.679864    2.841285
  31 H     1.0000    0     1.008   16.889407    6.898378    3.216118
  32 H     1.0000    0     1.008   18.285155    1.814872    0.686435
  33 H     1.0000    0     1.008   17.365277    4.571189   -0.946809
  34 H     1.0000    0     1.008   13.119080    4.432607    1.210663
  35 H     1.0000    0     1.008   14.038983    1.670415    2.839105
  36 H     1.0000    0     1.008   14.581915   -0.597888   -1.316935
  37 H     1.0000    0     1.008   13.662523    2.166752   -2.944661
  38 H     1.0000    0     1.008   10.333019   -0.762911    0.828948
  39 H     1.0000    0     1.008    9.404465    2.024734   -0.784440
  40 H     1.0000    0     1.008   10.785163   -3.035874   -3.292529
  41 H     1.0000    0     1.008    9.944833   -0.206789   -4.948764
  42 H     1.0000    0     1.008    3.788561   -7.699128    0.353126
  43 H     1.0000    0     1.008   -0.879750   -8.370577    0.499199
  44 H     1.0000    0     1.008   -1.975970   -1.394024   -3.594229
  45 H     1.0000    0     1.008    2.656539   -0.778376   -3.792844
  46 H     1.0000    0     1.008   -3.744442   -0.621797    0.534560
  47 H     1.0000    0     1.008   -6.887905    2.474217    1.675227
  48 H     1.0000    0     1.008  -12.803475   -2.836680   -0.538655
  49 H     1.0000    0     1.008   -8.238476   -7.374732   -1.977837
  50 H     1.0000    0     1.008   -9.605700    5.105652    1.018410
  51 H     1.0000    0     1.008  -12.835320    5.723563    1.444531
  52 H     1.0000    0     1.008  -12.594884    4.168306    5.959010
  53 H     1.0000    0     1.008   -9.302901    3.562986    5.565994
  54 H     1.0000    0     1.008  -10.470663    6.720143    5.386554
  55 H     1.0000    0     1.008  -15.598832    2.524546    2.573716
  56 H     1.0000    0     1.008  -14.982508   -0.629897    1.746699
  57 H     1.0000    0     1.008  -15.617714    3.789210   -2.033490
  58 H     1.0000    0     1.008  -17.904350    1.404197   -1.373137
  59 H     1.0000    0     1.008  -15.016834    0.589824   -2.908727

--------------------------------
INTERNAL COORDINATES (ANGSTROEM)
--------------------------------
 C      0   0   0     0.000000000000     0.00000000     0.00000000
 C      1   0   0     1.530232736449     0.00000000     0.00000000
 C      2   1   0     1.532290440310   113.49408098     0.00000000
 C      3   2   1     1.532154529810   113.78777412   179.82616328
 C      4   3   2     1.532342763855   113.30747633   180.07156068
 C      5   4   3     1.523843975820   112.32197694   179.40601432
 O      6   5   4     1.444315094574   111.52194886   184.39959313
 C      7   6   5     1.339668912539   118.51935889   271.45107782
 O      8   7   6     1.215166773588   123.75746860   358.83412473
 C      8   7   6     1.496356383579   112.53264278   178.94834620
 C     10   8   7     1.405388747145   118.29692210   178.60398345
 C     11  10   8     1.392326092965   120.31302084   180.03449299
 C     12  11  10     1.407283099602   120.50393479   358.47354176
 C     13  12  11     1.405761285504   119.03612157     1.95762560
 C     14  13  12     1.396188625906   120.49456241   359.13317684
 C     13  12  11     1.504275658344   118.22466952   177.55675342
 O     16  13  12     1.252790257610   116.68972298   316.14153445
 C     16  13  12     1.450812033186   121.81012531   135.57776161
 C     18  16  13     1.420762259717   124.35390183   352.48297053
 C     19  18  16     1.377655863078   122.77605736   180.19431560
 C     20  19  18     1.435993796846   120.83874236   359.74633161
 C     21  20  19     1.418335572492   117.09327892     1.38890919
 C     22  21  20     1.394834928336   121.82150572   359.51241831
 O     23  22  21     1.337865714785   118.22619565   178.81703000
 N     21  20  19     1.366250048594   121.25456227   180.62921407
 C     25  21  20     1.466171536125   122.23949140     4.45472662
 C     26  25  21     1.530713339952   113.92653281   270.88031566
 C     25  21  20     1.465547908205   121.93039047   184.26841791
 C     28  25  21     1.531080415695   113.90906369   272.41240773
 H      1   2   3     1.103613617349   111.25299384    59.80777212
 H      1   2   3     1.102395840922   111.56070284   179.98001220
 H      1   2   3     1.103585345006   111.22591858   300.14426745
 H      2   1   3     1.105733802524   109.52484584   237.76976099
 H      2   1   3     1.105770407514   109.49504169   122.16997023
 H      3   2   1     1.106322291872   109.24739688    57.53036255
 H      3   2   1     1.106327618757   109.25417315   302.17624890
 H      4   3   2     1.105838158469   109.29060925    57.78279954
 H      4   3   2     1.105977570741   109.26595077   302.24623160
 H      5   4   3     1.103674680541   109.75134868   300.88603603
 H      5   4   3     1.104265872750   109.92181742    58.19817572
 H      6   5   4     1.099816418338   111.23662431    62.44849940
 H      6   5   4     1.099710852186   111.05306666   300.83581753
 H     11  10   8     1.091801976540   119.07638187   359.74005515
 H     12  11  10     1.092176891420   120.15759414   178.97426926
 H     14  13  12     1.091770811646   120.17345199   177.61687963
 H     15  14  13     1.090740655191   119.94263324   179.36285292
 H     19  18  16     1.091071048648   119.14630087   358.51262940
 H     20  19  18     1.088272703507   118.58496566   178.38887010
 H     22  21  20     1.088560174408   121.71676316   179.65471191
 H     24  23  22     1.001284261705   105.84911952   182.82185834
 H     26  25  21     1.099748582038   109.48201859    35.21939623
 H     26  25  21     1.101231747017   107.16092850   149.43100372
 H     27  26  25     1.102066391314   111.06579709   301.72537173
 H     27  26  25     1.101510405417   111.44878563    62.27445462
 H     27  26  25     1.102160537967   110.07892856   182.19843669
 H     28  25  21     1.101111394228   107.20785237   150.93207296
 H     28  25  21     1.100308110402   109.40878449    36.60239622
 H     29  28  25     1.102095089182   111.03277630   301.42143798
 H     29  28  25     1.102094031531   110.05043012   181.92058902
 H     29  28  25     1.101335336590   111.46879213    62.02027242

---------------------------
INTERNAL COORDINATES (A.U.)
---------------------------
 C      0   0   0     0.000000000000     0.00000000     0.00000000
 C      1   0   0     2.891720793050     0.00000000     0.00000000
 C      2   1   0     2.895609289811   113.49408098     0.00000000
 C      3   2   1     2.895352456187   113.78777412   179.82616328
 C      4   3   2     2.895708166982   113.30747633   180.07156068
 C      5   4   3     2.879647785126   112.32197694   179.40601432
 O      6   5   4     2.729359979834   111.52194886   184.39959313
 C      7   6   5     2.531607354827   118.51935889   271.45107782
 O      8   7   6     2.296332409123   123.75746860   358.83412473
 C      8   7   6     2.827703763709   112.53264278   178.94834620
 C     10   8   7     2.655799843799   118.29692210   178.60398345
 C     11  10   8     2.631115004816   120.31302084   180.03449299
 C     12  11  10     2.659379651143   120.50393479   358.47354176
 C     13  12  11     2.656503839272   119.03612157     1.95762560
 C     14  13  12     2.638414134259   120.49456241   359.13317684
 C     13  12  11     2.842669024194   118.22466952   177.55675342
 O     16  13  12     2.367430490127   116.68972298   316.14153445
 C     16  13  12     2.741637414519   121.81012531   135.57776161
 C     18  16  13     2.684851572277   124.35390183   352.48297053
 C     19  18  16     2.603392288009   122.77605736   180.19431560
 C     20  19  18     2.713635006048   120.83874236   359.74633161
 C     21  20  19     2.680265798009   117.09327892     1.38890919
 C     22  21  20     2.635856016582   121.82150572   359.51241831
 O     23  22  21     2.528199804906   118.22619565   178.81703000
 N     21  20  19     2.581838422299   121.25456227   180.62921407
 C     25  21  20     2.770662668627   122.23949140     4.45472662
 C     26  25  21     2.892629002050   113.92653281   270.88031566
 C     25  21  20     2.769484182648   121.93039047   184.26841791
 C     28  25  21     2.893322674674   113.90906369   272.41240773
 H      1   2   3     2.085527494455   111.25299384    59.80777212
 H      1   2   3     2.083226230516   111.56070284   179.98001220
 H      1   2   3     2.085474067470   111.22591858   300.14426745
 H      2   1   3     2.089534063789   109.52484584   237.76976099
 H      2   1   3     2.089603237196   109.49504169   122.16997023
 H      3   2   1     2.090646147489   109.24739688    57.53036255
 H      3   2   1     2.090656213844   109.25417315   302.17624890
 H      4   3   2     2.089731267946   109.29060925    57.78279954
 H      4   3   2     2.089994718960   109.26595077   302.24623160
 H      5   4   3     2.085642887165   109.75134868   300.88603603
 H      5   4   3     2.086760078533   109.92181742    58.19817572
 H      6   5   4     2.078351828249   111.23662431    62.44849940
 H      6   5   4     2.078152337132   111.05306666   300.83581753
 H     11  10   8     2.063206728135   119.07638187   359.74005515
 H     12  11  10     2.063915214582   120.15759414   178.97426926
 H     14  13  12     2.063147835021   120.17345199   177.61687963
 H     15  14  13     2.061201121445   119.94263324   179.36285292
 H     19  18  16     2.061825474596   119.14630087   358.51262940
 H     20  19  18     2.056537368650   118.58496566   178.38887010
 H     22  21  20     2.057080609925   121.71676316   179.65471191
 H     24  23  22     1.892153036828   105.84911952   182.82185834
 H     26  25  21     2.078223636220   109.48201859    35.21939623
 H     26  25  21     2.081026411842   107.16092850   149.43100372
 H     27  26  25     2.082603660983   111.06579709   301.72537173
 H     27  26  25     2.081552999902   111.44878563    62.27445462
 H     27  26  25     2.082781572374   110.07892856   182.19843669
 H     28  25  21     2.080798978032   107.20785237   150.93207296
 H     28  25  21     2.079280991593   109.40878449    36.60239622
 H     29  28  25     2.082657892093   111.03277630   301.42143798
 H     29  28  25     2.082655893422   110.05043012   181.92058902
 H     29  28  25     2.081222167766   111.46879213    62.02027242

---------------------
BASIS SET INFORMATION
---------------------
There are 4 groups of distinct atoms

 Group   1 Type C   : 11s5p1d contracted to 4s3p1d pattern {6311/311/1}
 Group   2 Type O   : 11s5p1d contracted to 4s3p1d pattern {6311/311/1}
 Group   3 Type N   : 11s5p1d contracted to 4s3p1d pattern {6311/311/1}
 Group   4 Type H   : 4s contracted to 2s pattern {31}

Atom   0C    basis set group =>   1
Atom   1C    basis set group =>   1
Atom   2C    basis set group =>   1
Atom   3C    basis set group =>   1
Atom   4C    basis set group =>   1
Atom   5C    basis set group =>   1
Atom   6O    basis set group =>   2
Atom   7C    basis set group =>   1
Atom   8O    basis set group =>   2
Atom   9C    basis set group =>   1
Atom  10C    basis set group =>   1
Atom  11C    basis set group =>   1
Atom  12C    basis set group =>   1
Atom  13C    basis set group =>   1
Atom  14C    basis set group =>   1
Atom  15C    basis set group =>   1
Atom  16O    basis set group =>   2
Atom  17C    basis set group =>   1
Atom  18C    basis set group =>   1
Atom  19C    basis set group =>   1
Atom  20C    basis set group =>   1
Atom  21C    basis set group =>   1
Atom  22C    basis set group =>   1
Atom  23O    basis set group =>   2
Atom  24N    basis set group =>   3
Atom  25C    basis set group =>   1
Atom  26C    basis set group =>   1
Atom  27C    basis set group =>   1
Atom  28C    basis set group =>   1
Atom  29H    basis set group =>   4
Atom  30H    basis set group =>   4
Atom  31H    basis set group =>   4
Atom  32H    basis set group =>   4
Atom  33H    basis set group =>   4
Atom  34H    basis set group =>   4
Atom  35H    basis set group =>   4
Atom  36H    basis set group =>   4
Atom  37H    basis set group =>   4
Atom  38H    basis set group =>   4
Atom  39H    basis set group =>   4
Atom  40H    basis set group =>   4
Atom  41H    basis set group =>   4
Atom  42H    basis set group =>   4
Atom  43H    basis set group =>   4
Atom  44H    basis set group =>   4
Atom  45H    basis set group =>   4
Atom  46H    basis set group =>   4
Atom  47H    basis set group =>   4
Atom  48H    basis set group =>   4
Atom  49H    basis set group =>   4
Atom  50H    basis set group =>   4
Atom  51H    basis set group =>   4
Atom  52H    basis set group =>   4
Atom  53H    basis set group =>   4
Atom  54H    basis set group =>   4
Atom  55H    basis set group =>   4
Atom  56H    basis set group =>   4
Atom  57H    basis set group =>   4
Atom  58H    basis set group =>   4
Atom  59H    basis set group =>   4
---------------------------------
AUXILIARY/J BASIS SET INFORMATION
---------------------------------
There are 4 groups of distinct atoms

 Group   1 Type C   : 12s5p4d2f1g contracted to 6s4p3d1f1g pattern {711111/2111/211/2/1}
 Group   2 Type O   : 12s5p4d2f1g contracted to 6s4p3d1f1g pattern {711111/2111/211/2/1}
 Group   3 Type N   : 12s5p4d2f1g contracted to 6s4p3d1f1g pattern {711111/2111/211/2/1}
 Group   4 Type H   : 5s2p1d contracted to 3s1p1d pattern {311/2/1}

Atom   0C    basis set group =>   1
Atom   1C    basis set group =>   1
Atom   2C    basis set group =>   1
Atom   3C    basis set group =>   1
Atom   4C    basis set group =>   1
Atom   5C    basis set group =>   1
Atom   6O    basis set group =>   2
Atom   7C    basis set group =>   1
Atom   8O    basis set group =>   2
Atom   9C    basis set group =>   1
Atom  10C    basis set group =>   1
Atom  11C    basis set group =>   1
Atom  12C    basis set group =>   1
Atom  13C    basis set group =>   1
Atom  14C    basis set group =>   1
Atom  15C    basis set group =>   1
Atom  16O    basis set group =>   2
Atom  17C    basis set group =>   1
Atom  18C    basis set group =>   1
Atom  19C    basis set group =>   1
Atom  20C    basis set group =>   1
Atom  21C    basis set group =>   1
Atom  22C    basis set group =>   1
Atom  23O    basis set group =>   2
Atom  24N    basis set group =>   3
Atom  25C    basis set group =>   1
Atom  26C    basis set group =>   1
Atom  27C    basis set group =>   1
Atom  28C    basis set group =>   1
Atom  29H    basis set group =>   4
Atom  30H    basis set group =>   4
Atom  31H    basis set group =>   4
Atom  32H    basis set group =>   4
Atom  33H    basis set group =>   4
Atom  34H    basis set group =>   4
Atom  35H    basis set group =>   4
Atom  36H    basis set group =>   4
Atom  37H    basis set group =>   4
Atom  38H    basis set group =>   4
Atom  39H    basis set group =>   4
Atom  40H    basis set group =>   4
Atom  41H    basis set group =>   4
Atom  42H    basis set group =>   4
Atom  43H    basis set group =>   4
Atom  44H    basis set group =>   4
Atom  45H    basis set group =>   4
Atom  46H    basis set group =>   4
Atom  47H    basis set group =>   4
Atom  48H    basis set group =>   4
Atom  49H    basis set group =>   4
Atom  50H    basis set group =>   4
Atom  51H    basis set group =>   4
Atom  52H    basis set group =>   4
Atom  53H    basis set group =>   4
Atom  54H    basis set group =>   4
Atom  55H    basis set group =>   4
Atom  56H    basis set group =>   4
Atom  57H    basis set group =>   4
Atom  58H    basis set group =>   4
Atom  59H    basis set group =>   4


           ************************************************************
           *        Program running with 4 parallel MPI-processes     *
           *              working on a common directory               *
           ************************************************************
------------------------------------------------------------------------------
                             ORCA STARTUP CALCULATIONS
                           -- RI-GTO INTEGRALS CHOSEN --
------------------------------------------------------------------------------
------------------------------------------------------------------------------
                   ___                                                        
                  /   \      - P O W E R E D   B Y -                         
                 /     \                                                     
                 |  |  |   _    _      __       _____    __    __             
                 |  |  |  | |  | |    /  \     |  _  \  |  |  /  |          
                  \  \/   | |  | |   /    \    | | | |  |  | /  /          
                 / \  \   | |__| |  /  /\  \   | |_| |  |  |/  /          
                |  |  |   |  __  | /  /__\  \  |    /   |      \           
                |  |  |   | |  | | |   __   |  |    \   |  |\   \          
                \     /   | |  | | |  |  |  |  | |\  \  |  | \   \       
                 \___/    |_|  |_| |__|  |__|  |_| \__\ |__|  \__/        
                                                                              
                      - O R C A' S   B I G   F R I E N D -                    
                                      &                                       
                       - I N T E G R A L  F E E D E R -                       
                                                                              
 v1 FN, 2020, v2 2021, v3 2022-2024                                           
------------------------------------------------------------------------------


----------------------
SHARK INTEGRAL PACKAGE
----------------------

Number of atoms                             ...     60
Number of basis functions                   ...    584
Number of shells                            ...    294
Maximum angular momentum                    ...      2
Integral batch strategy                     ... SHARK/LIBINT Hybrid
RI-J (if used) integral strategy            ... SPLIT-RIJ (Revised 2003 algorithm where possible)
Printlevel                                  ...      1
Contraction scheme used                     ... SEGMENTED contraction
Prescreening option                         ... SCHWARTZ
   Thresh                                   ... 2.500e-11
   Tcut                                     ... 2.500e-12
   Tpresel                                  ... 2.500e-12 
Coulomb Range Separation                    ... NOT USED
Exchange Range Separation                   ... NOT USED
Multipole approximations                    ... NOT USED
Finite Nucleus Model                        ... NOT USED
CABS basis                                  ... NOT available
Auxiliary Coulomb fitting basis             ... AVAILABLE
   # of basis functions in Aux-J            ...   1762
   # of shells in Aux-J                     ...    590
   Maximum angular momentum in Aux-J        ...      4
Auxiliary J/K fitting basis                 ... NOT available
Auxiliary Correlation fitting basis         ... NOT available
Auxiliary 'external' fitting basis          ... NOT available

Checking pre-screening integrals            ... done (  0.0 sec) Dimension = 294
   => SHARK Basis and OBASIS are compatible. Storing Pre-screening
Shell pair information
Shell pair cut-off parameter TPreSel        ...   2.5e-12
Total number of shell pairs                 ...     43365
Shell pairs after pre-screening             ...     27081
Total number of primitive shell pairs       ...    191355
Primitive shell pairs kept                  ...     70759
          la=0 lb=0:   9047 shell pairs
          la=1 lb=0:  10655 shell pairs
          la=1 lb=1:   3056 shell pairs
          la=2 lb=0:   2512 shell pairs
          la=2 lb=1:   1633 shell pairs
          la=2 lb=2:    178 shell pairs

Checking whether 4 symmetric matrices of dimension 584 fit in memory
:Max Core in MB      =   2500.00
 MB in use           =     30.38
 MB left             =   2469.62
 MB needed           =      5.21
 Data fit in memory  = YES
Calculating RI/J V-Matrix + Cholesky decomp.... done (  0.5 sec)
Calculating Nuclear repulsion               ... done (  0.0 sec) ENN=   2505.210474003070 Eh

Diagonalization of the overlap matrix:
Smallest eigenvalue                        ... 1.799e-07
Time for diagonalization                   ...    0.086 sec
Threshold for overlap eigenvalues          ... 1.000e-07
Number of eigenvalues below threshold      ... 0

IMPORTANT:
Smallest eigenvalue of S below the DiffSThresh (1.000e-06) while
Thresh>1e-12 and/or TCut>1e-13! In order to avoid SCF convergence issues,
Thresh will be set to at least 1e-12 and TCut to at least 1e-13.
This can be turned off by adding %SCF DiffSThresh -1 END to the input.

Time for construction of square roots      ...    0.053 sec
Total time needed                          ...    0.148 sec

-------------------
DFT GRID GENERATION
-------------------

General Integration Accuracy     IntAcc      ... 4.388
Radial Grid Type                 RadialGrid  ... OptM3 with GC (2021)
Angular Grid (max. ang.)         AngularGrid ... 4 (Lebedev-302)
Angular grid pruning method      GridPruning ... 4 (adaptive)
Weight generation scheme         WeightScheme... mBecke (2022)
Basis function cutoff            BFCut       ... 1.0000e-11
Integration weight cutoff        WCut        ... 1.0000e-14
Partially contracted basis set               ... off
Rotationally invariant grid construction     ... off
Angular grids for H and He will be reduced by one unit
Diffuse basis detected: some atoms will have their outermost
                        angular grid increased by 1.

Total number of grid points                  ...   279166
Total number of batches                      ...     4389
Average number of points per batch           ...       63
Average number of grid points per atom       ...     4653

--------------------
COSX GRID GENERATION
--------------------

GRIDX 1
-------
General Integration Accuracy     IntAcc      ... 3.816
Radial Grid Type                 RadialGrid  ... OptM3 with GC (2021)
Angular Grid (max. ang.)         AngularGrid ... 1 (Lebedev-50)
Angular grid pruning method      GridPruning ... 4 (adaptive)
Weight generation scheme         WeightScheme... mBecke (2022)
Basis function cutoff            BFCut       ... 1.0000e-11
Integration weight cutoff        WCut        ... 1.0000e-14
Partially contracted basis set               ... on
Rotationally invariant grid construction     ... off
Angular grids for H and He will be reduced by one unit
Diffuse basis detected: some atoms will have their outermost
                        angular grid increased by 1.

Total number of grid points                  ...    35612
Total number of batches                      ...      317
Average number of points per batch           ...      112
Average number of grid points per atom       ...      594
UseSFitting                                  ... on

GRIDX 2
-------
General Integration Accuracy     IntAcc      ... 4.020
Radial Grid Type                 RadialGrid  ... OptM3 with GC (2021)
Angular Grid (max. ang.)         AngularGrid ... 2 (Lebedev-110)
Angular grid pruning method      GridPruning ... 4 (adaptive)
Weight generation scheme         WeightScheme... mBecke (2022)
Basis function cutoff            BFCut       ... 1.0000e-11
Integration weight cutoff        WCut        ... 1.0000e-14
Partially contracted basis set               ... on
Rotationally invariant grid construction     ... off
Angular grids for H and He will be reduced by one unit
Diffuse basis detected: some atoms will have their outermost
                        angular grid increased by 1.

Total number of grid points                  ...    81213
Total number of batches                      ...      667
Average number of points per batch           ...      121
Average number of grid points per atom       ...     1354
UseSFitting                                  ... on

GRIDX 3
-------
General Integration Accuracy     IntAcc      ... 4.338
Radial Grid Type                 RadialGrid  ... OptM3 with GC (2021)
Angular Grid (max. ang.)         AngularGrid ... 3 (Lebedev-194)
Angular grid pruning method      GridPruning ... 4 (adaptive)
Weight generation scheme         WeightScheme... mBecke (2022)
Basis function cutoff            BFCut       ... 1.0000e-11
Integration weight cutoff        WCut        ... 1.0000e-14
Partially contracted basis set               ... on
Rotationally invariant grid construction     ... off
Angular grids for H and He will be reduced by one unit
Diffuse basis detected: some atoms will have their outermost
                        angular grid increased by 1.

Total number of grid points                  ...   174835
Total number of batches                      ...     1399
Average number of points per batch           ...      124
Average number of grid points per atom       ...     2914
UseSFitting                                  ... on
Grids setup in  10.8 sec
Initializing property integral containers    ... done (  0.2 sec)

SHARK setup successfully completed in  12.4 seconds

Maximum memory used throughout the entire STARTUP-calculation: 89.9 MB


           ************************************************************
           *        Program running with 4 parallel MPI-processes     *
           *              working on a common directory               *
           ************************************************************
-------------------------------------------------------------------------------
                                 ORCA GUESS
                   Start orbitals & Density for SCF / CASSCF
-------------------------------------------------------------------------------

------------
SCF SETTINGS
------------
Hamiltonian:
 Density Functional     Method          .... DFT(GTOs)
 Exchange Functional    Exchange        .... B88
   X-Alpha parameter    XAlpha          ....  0.666667
   Becke's b parameter  XBeta           ....  0.004200
 Correlation Functional Correlation     .... LYP
 LDA part of GGA corr.  LDAOpt          .... VWN-5
 Gradients option       PostSCFGGA      .... off
 Hybrid DFT is turned on
   Fraction HF Exchange ScalHFX         ....  0.200000
   Scaling of DF-GGA-X  ScalDFX         ....  0.720000
   Scaling of DF-GGA-C  ScalDFC         ....  0.810000
   Scaling of DF-LDA-C  ScalLDAC        ....  1.000000
   Perturbative correction              ....  0.000000
   NL short-range parameter             ....  4.800000
 RI-approximation to the Coulomb term is turned on
   Number of AuxJ basis functions       .... 1762
   RIJ-COSX (HFX calculated with COS-X)).... on


General Settings:
 Integral files         IntName         .... td
 Hartree-Fock type      HFTyp           .... RHF
 Total Charge           Charge          ....    0
 Multiplicity           Mult            ....    1
 Number of Electrons    NEL             ....  214
 Basis Dimension        Dim             ....  584
 Nuclear Repulsion      ENuc            ....   2505.2104740031 Eh

Convergence Acceleration:
 AO-DIIS                CNVDIIS         .... on
   Start iteration      DIISMaxIt       ....    12
   Startup error        DIISStart       ....  0.200000
   # of expansion vecs  DIISMaxEq       ....     5
   Bias factor          DIISBfac        ....   1.050
   Max. coefficient     DIISMaxC        ....  10.000
 MO-DIIS                CNVKDIIS        .... off
 Trust-Rad. Augm. Hess. CNVTRAH         .... auto
   Auto Start mean grad. ratio tolernc. ....  1.125000
   Auto Start start iteration           ....    50
   Auto Start num. interpolation iter.  ....    10
   Max. Number of Micro iterations      ....    24
   Max. Number of Macro iterations      .... Maxiter - #DIIS iter
   Number of Davidson start vectors     ....     2
   Converg. threshold    (grad. norm)   ....   1.000e-05
   Grad. Scal. Fac. for Micro threshold ....   0.100
   Minimum threshold for Micro iter.    ....   1.000e-02
   NR start threshold (gradient norm)   ....   1.000e-04
   Initial trust radius                 ....   0.400
   Minimum AH scaling param. (alpha)    ....   1.000
   Maximum AH scaling param. (alpha)    .... 1000.000
   Quad. conv. algorithm                .... NR
   White noise on init. David. guess    .... on
   Maximum white noise                  ....   0.010
   Pseudo random numbers                .... off
   Inactive MOs                         .... canonical
   Orbital update algorithm             .... Taylor
   Preconditioner                       .... Diag
   Full preconditioner red. dimension   ....   250
 SOSCF                 CNVSOSCF           .... on
   Start iteration     SOSCFMaxIt         ....   150
   Startup grad/error  SOSCFStart         ....  0.003300
   Hessian update      SOSCFHessUp        .... L-BFGS
   Autom. constraints  SOSCFAutoConstrain .... off
 Level Shifting         CNVShift        .... on
   Level shift para.    LevelShift      ....    0.2500
   Turn off err/grad.   ShiftErr        ....    0.0010
 Zerner damping         CNVZerner       .... off
 Static damping         CNVDamp         .... on
   Fraction old density DampFac         ....    0.7000
   Max. Damping (<1)    DampMax         ....    0.9800
   Min. Damping (>=0)   DampMin         ....    0.0000
   Turn off err/grad.   DampErr         ....    0.1000

SCF Procedure:
 Maximum # iterations   MaxIter         ....   300
 SCF integral mode      SCFMode         .... Direct
   Integral package                     .... SHARK and LIBINT hybrid scheme
 Reset frequency        DirectResetFreq ....    20
 Integral Threshold     Thresh          ....  1.000e-12 Eh
 Primitive CutOff       TCut            ....  1.000e-13 Eh

Convergence Tolerance:
 Convergence Check Mode ConvCheckMode   .... Total+1el-Energy
 Convergence forced     ConvForced      .... 1
 Energy Change          TolE            ....  1.000e-08 Eh
 1-El. energy change                    ....  1.000e-05 Eh
 Orbital Gradient       TolG            ....  1.000e-05
 Orbital Rotation angle TolX            ....  1.000e-05
 DIIS Error             TolErr          ....  5.000e-07

------------------------------
INITIAL GUESS: MODEL POTENTIAL
------------------------------
Loading Hartree-Fock densities                     ... done
Calculating cut-offs                               ... done
Initializing the effective Hamiltonian             ... done
Setting up the integral package (SHARK)            ... done
Starting the Coulomb interaction                   ... done (   2.6 sec)
Making the grid                                    ... done (   1.6 sec)
Mapping shells                                     ... done
Starting the XC term evaluation                    ... done (   1.7 sec)
  promolecular density results
     # of electrons  =    213.971939330
     EX              =   -171.984160358
     EC              =     -7.204654794
     EX+EC           =   -179.188815152
Transforming the Hamiltonian                       ... done (   0.0 sec)
Diagonalizing the Hamiltonian                      ... done (   0.1 sec)
Back transforming the eigenvectors                 ... done (   0.0 sec)
Now organizing SCF variables                       ... done
                      ------------------
                      INITIAL GUESS DONE (   6.2 sec)
                      ------------------
             **** ENERGY FILE WAS UPDATED (td.en.tmp) ****
Finished Guess after   6.7 sec
Maximum memory used throughout the entire GUESS-calculation: 41.4 MB


           ************************************************************
           *        Program running with 4 parallel MPI-processes     *
           *              working on a common directory               *
           ************************************************************

-------------------------------------------------------------------------------------------
                                      ORCA LEAN-SCF
                              memory conserving SCF solver
-------------------------------------------------------------------------------------------

--------------------
CPCM SOLVATION MODEL
--------------------
CPCM parameters:
  Epsilon                                         ...      25.4510
  Refrac                                          ...       1.3611
  Rsolv                                           ...       1.3000
  Surface type                                    ... GAUSSIAN VDW
  Discretization scheme                           ... Constant charge density
    Threshold for H atoms                         ...       5.0000 (charges/Ang^2)
    Threshold for non-H atoms                     ...       5.0000 (charges/Ang^2)
  Epsilon function type                           ...         CPCM
Solvent:                                          ... ETHANOL
Radii:
  Scheme                                          ... Element-dependent radii
  Radius for C  used is    3.8550 Bohr (=   2.0400 Ang.)
  Radius for O  used is    3.4469 Bohr (=   1.8240 Ang.)
  Radius for N  used is    3.5149 Bohr (=   1.8600 Ang.)
  Radius for H  used is    2.4944 Bohr (=   1.3200 Ang.)
Calculating surface                               ...        done! (  0.0s)
Cavity surface points                             ...         5063
Cavity Volume                                     ...    3387.7580
Cavity Surface-area                               ...    1753.2871
Calculating surface distance matrix               ...        done! (  0.4s)
Performing Cholesky decomposition & store         ...        done! (  2.3s)
Overall time for CPCM initialization              ...                 2.8s

----------------------------------------D-I-I-S--------------------------------------------
Iteration    Energy (Eh)           Delta-E    RMSDP     MaxDP     DIISErr   Damp  Time(sec)
-------------------------------------------------------------------------------------------
               ***  Starting incremental Fock matrix formation  ***
    1    -1287.4292172377654424     0.00e+00  7.82e-02  4.86e+00  2.58e-01  0.700  57.6
    2    -1287.7728950972077655    -3.44e-01  5.12e-02  2.80e+00  9.99e-02  0.700  35.2
                               ***Turning on AO-DIIS***
    3    -1287.9107400749767294    -1.38e-01  2.42e-02  9.17e-01  3.46e-02  0.700  34.6
    4    -1287.9928515716560469    -8.21e-02  4.85e-02  1.79e+00  1.85e-02  0.000  30.0
    5    -1288.1715384532008102    -1.79e-01  1.64e-02  8.68e-01  5.33e-03  0.000  32.0
                              *** Initializing SOSCF ***
---------------------------------------S-O-S-C-F--------------------------------------
Iteration    Energy (Eh)           Delta-E    RMSDP     MaxDP     MaxGrad    Time(sec)
--------------------------------------------------------------------------------------
    6    -1288.1724431628663297    -9.05e-04  6.16e-03  3.10e-01  1.39e-03    31.3
               *** Restarting incremental Fock matrix formation ***
    7    -1288.1724618128555448    -1.86e-05  2.72e-02  2.56e+00  1.76e-04    64.0
    8    -1288.1724619393003195    -1.26e-07  4.14e-03  3.36e-01  3.33e-04    51.9
    9    -1288.1724716289063508    -9.69e-06  5.52e-03  4.67e-01  6.94e-05    45.1
   10    -1288.1724716989497210    -7.00e-08  5.20e-04  3.97e-02  5.45e-05    47.7
   11    -1288.1724724665482427    -7.68e-07  1.16e-03  7.88e-02  1.55e-05    38.9
   12    -1288.1724724520345262     1.45e-08  9.12e-04  8.90e-02  1.78e-05    41.7
   13    -1288.1724724869741294    -3.49e-08  1.39e-03  9.16e-02  3.51e-06    36.9
   14    -1288.1724724860459901     9.28e-10  4.68e-04  4.62e-02  4.91e-06    35.0
                 **** Energy Check signals convergence ****

               *****************************************************
               *                     SUCCESS                       *
               *           SCF CONVERGED AFTER  14 CYCLES          *
               *****************************************************

Recomputing exchange energy using gridx3       ... done (   95.964 sec)
Old exchange energy                            :    -34.983863422 Eh
New exchange energy                            :    -34.983888319 Eh
Exchange energy change after final integration :     -0.000024897 Eh
Total energy after final integration           :  -1288.172497401 Eh
             **** ENERGY FILE WAS UPDATED (td.en.tmp) ****

----------------
TOTAL SCF ENERGY
----------------

Total Energy       :      -1288.17249740110788 Eh          -35052.95571 eV

Components:
Nuclear Repulsion  :       2505.21047400306952 Eh           68170.24271 eV
Electronic Energy  :      -3793.35669088368604 Eh         -103222.48329 eV
One Electron Energy:      -6727.96243861414223 Eh         -183077.16542 eV
Two Electron Energy:       2934.60574773045619 Eh           79854.68213 eV
CPCM Dielectric    :         -0.02625562300592 Eh              -0.71445 eV

Virial components:
Potential Energy   :      -2568.27063501230396 Eh          -69886.19692 eV
Kinetic Energy     :       1280.09813761119608 Eh           34833.24121 eV
Virial Ratio       :          2.00630760998136

DFT components:
N(Alpha)           :      107.000197561345 electrons
N(Beta)            :      107.000197561345 electrons
N(Total)           :      214.000395122689 electrons
E(X)               :     -138.921459686651 Eh       
E(C)               :       -8.486148938858 Eh       
E(XC)              :     -147.407608625509 Eh       

CPCM Solvation Model Properties:
Surface-charge          :         -0.05376623965661
Corrected charge        :         -0.00000000000000
Outlying charge corr.   :          0.00011815877094 Eh               0.00322 eV
Free-energy (cav+disp)  :  This term is not implemented in the current solvation scheme

---------------
SCF CONVERGENCE
---------------

  Last Energy change         ...   -9.2814e-10  Tolerance :   1.0000e-08
  Last MAX-Density change    ...    4.6231e-02  Tolerance :   1.0000e-07
  Last RMS-Density change    ...    4.6780e-04  Tolerance :   5.0000e-09
  Last DIIS Error            ...    1.3884e-03  Tolerance :   5.0000e-07
  Last Orbital Gradient      ...    4.9143e-06  Tolerance :   1.0000e-05
  Last Orbital Rotation      ...    1.1477e-05  Tolerance :   1.0000e-05


----------------
ORBITAL ENERGIES
----------------

  NO   OCC          E(Eh)            E(eV) 
   0   2.0000     -19.200059      -522.4602 
   1   2.0000     -19.172606      -521.7131 
   2   2.0000     -19.150959      -521.1241 
   3   2.0000     -19.149927      -521.0960 
   4   2.0000     -14.365449      -390.9037 
   5   2.0000     -10.329152      -281.0705 
   6   2.0000     -10.285283      -279.8768 
   7   2.0000     -10.263801      -279.2922 
   8   2.0000     -10.248482      -278.8754 
   9   2.0000     -10.235061      -278.5102 
  10   2.0000     -10.215237      -277.9707 
  11   2.0000     -10.215019      -277.9648 
  12   2.0000     -10.215007      -277.9645 
  13   2.0000     -10.214584      -277.9530 
  14   2.0000     -10.205403      -277.7031 
  15   2.0000     -10.204756      -277.6855 
  16   2.0000     -10.203914      -277.6626 
  17   2.0000     -10.203011      -277.6381 
  18   2.0000     -10.201639      -277.6007 
  19   2.0000     -10.194565      -277.4082 
  20   2.0000     -10.184805      -277.1426 
  21   2.0000     -10.179531      -276.9991 
  22   2.0000     -10.176657      -276.9209 
  23   2.0000     -10.173058      -276.8230 
  24   2.0000     -10.170407      -276.7509 
  25   2.0000     -10.170232      -276.7461 
  26   2.0000     -10.169287      -276.7204 
  27   2.0000     -10.168586      -276.7013 
  28   2.0000     -10.162291      -276.5300 
  29   2.0000      -1.116962       -30.3941 
  30   2.0000      -1.076568       -29.2949 
  31   2.0000      -1.040908       -28.3245 
  32   2.0000      -1.030176       -28.0325 
  33   2.0000      -0.961665       -26.1682 
  34   2.0000      -0.876151       -23.8413 
  35   2.0000      -0.851635       -23.1742 
  36   2.0000      -0.808101       -21.9895 
  37   2.0000      -0.793624       -21.5956 
  38   2.0000      -0.776159       -21.1204 
  39   2.0000      -0.771879       -21.0039 
  40   2.0000      -0.764485       -20.8027 
  41   2.0000      -0.761397       -20.7187 
  42   2.0000      -0.744875       -20.2691 
  43   2.0000      -0.726506       -19.7692 
  44   2.0000      -0.717945       -19.5363 
  45   2.0000      -0.675964       -18.3939 
  46   2.0000      -0.658870       -17.9288 
  47   2.0000      -0.643489       -17.5102 
  48   2.0000      -0.640847       -17.4383 
  49   2.0000      -0.621060       -16.8999 
  50   2.0000      -0.602680       -16.3998 
  51   2.0000      -0.596699       -16.2370 
  52   2.0000      -0.594426       -16.1751 
  53   2.0000      -0.583885       -15.8883 
  54   2.0000      -0.571550       -15.5527 
  55   2.0000      -0.561165       -15.2701 
  56   2.0000      -0.544942       -14.8286 
  57   2.0000      -0.527278       -14.3480 
  58   2.0000      -0.518617       -14.1123 
  59   2.0000      -0.500599       -13.6220 
  60   2.0000      -0.494068       -13.4443 
  61   2.0000      -0.493425       -13.4268 
  62   2.0000      -0.477114       -12.9829 
  63   2.0000      -0.472313       -12.8523 
  64   2.0000      -0.467074       -12.7097 
  65   2.0000      -0.462261       -12.5787 
  66   2.0000      -0.458832       -12.4855 
  67   2.0000      -0.457371       -12.4457 
  68   2.0000      -0.448750       -12.2111 
  69   2.0000      -0.442495       -12.0409 
  70   2.0000      -0.435694       -11.8558 
  71   2.0000      -0.432825       -11.7778 
  72   2.0000      -0.431740       -11.7483 
  73   2.0000      -0.423300       -11.5186 
  74   2.0000      -0.420957       -11.4548 
  75   2.0000      -0.419913       -11.4264 
  76   2.0000      -0.416318       -11.3286 
  77   2.0000      -0.408782       -11.1235 
  78   2.0000      -0.401696       -10.9307 
  79   2.0000      -0.395528       -10.7629 
  80   2.0000      -0.393480       -10.7071 
  81   2.0000      -0.390903       -10.6370 
  82   2.0000      -0.388903       -10.5826 
  83   2.0000      -0.384552       -10.4642 
  84   2.0000      -0.374152       -10.1812 
  85   2.0000      -0.372562       -10.1379 
  86   2.0000      -0.368632       -10.0310 
  87   2.0000      -0.366601        -9.9757 
  88   2.0000      -0.356374        -9.6974 
  89   2.0000      -0.356277        -9.6948 
  90   2.0000      -0.350342        -9.5333 
  91   2.0000      -0.349166        -9.5013 
  92   2.0000      -0.346454        -9.4275 
  93   2.0000      -0.344888        -9.3849 
  94   2.0000      -0.336188        -9.1482 
  95   2.0000      -0.331274        -9.0144 
  96   2.0000      -0.326242        -8.8775 
  97   2.0000      -0.322045        -8.7633 
  98   2.0000      -0.315420        -8.5830 
  99   2.0000      -0.300761        -8.1841 
 100   2.0000      -0.295076        -8.0294 
 101   2.0000      -0.292697        -7.9647 
 102   2.0000      -0.279093        -7.5945 
 103   2.0000      -0.269596        -7.3361 
 104   2.0000      -0.264366        -7.1938 
 105   2.0000      -0.234886        -6.3916 
 106   2.0000      -0.206866        -5.6291 
 107   0.0000      -0.079908        -2.1744 
 108   0.0000      -0.044639        -1.2147 
 109   0.0000      -0.024407        -0.6641 
 110   0.0000      -0.004490        -0.1222 
 111   0.0000       0.002906         0.0791 
 112   0.0000       0.010279         0.2797 
 113   0.0000       0.017427         0.4742 
 114   0.0000       0.020607         0.5608 
 115   0.0000       0.023585         0.6418 
 116   0.0000       0.024932         0.6784 
 117   0.0000       0.026926         0.7327 
*Only the first 10 virtual orbitals were printed.

                    ********************************
                    * MULLIKEN POPULATION ANALYSIS *
                    ********************************

-----------------------
MULLIKEN ATOMIC CHARGES
-----------------------
   0 C :   -0.939713
   1 C :   -0.200030
   2 C :   -0.414666
   3 C :   -0.192772
   4 C :   -0.188369
   5 C :   -0.364127
   6 O :   -0.214810
   7 C :    0.530476
   8 O :   -0.540200
   9 C :    0.019900
  10 C :   -0.048013
  11 C :   -0.515810
  12 C :    0.472263
  13 C :   -0.606610
  14 C :   -0.080122
  15 C :    0.055984
  16 O :   -0.568225
  17 C :    0.688122
  18 C :   -1.323439
  19 C :   -0.324502
  20 C :    0.204272
  21 C :    0.086482
  22 C :    0.158565
  23 O :   -0.734819
  24 N :   -0.053225
  25 C :   -0.341182
  26 C :   -0.623272
  27 C :   -0.315427
  28 C :   -0.632611
  29 H :    0.203883
  30 H :    0.199868
  31 H :    0.203586
  32 H :    0.194826
  33 H :    0.194348
  34 H :    0.197063
  35 H :    0.197797
  36 H :    0.204829
  37 H :    0.203819
  38 H :    0.218955
  39 H :    0.212402
  40 H :    0.230422
  41 H :    0.220776
  42 H :    0.228662
  43 H :    0.225651
  44 H :    0.232955
  45 H :    0.233007
  46 H :    0.223510
  47 H :    0.205044
  48 H :    0.207733
  49 H :    0.570928
  50 H :    0.213553
  51 H :    0.227973
  52 H :    0.218547
  53 H :    0.220792
  54 H :    0.215676
  55 H :    0.227943
  56 H :    0.214824
  57 H :    0.218185
  58 H :    0.215946
  59 H :    0.222376
Sum of atomic charges:    0.0000000

--------------------------------
MULLIKEN REDUCED ORBITAL CHARGES
--------------------------------
  0 C s       :     3.773344  s :     3.773344
      pz      :     0.989707  p :     3.131911
      px      :     1.095628
      py      :     1.046576
      dz2     :     0.010108  d :     0.034458
      dxz     :     0.002300
      dyz     :     0.007801
      dx2y2   :     0.006762
      dxy     :     0.007487

  1 C s       :     3.311782  s :     3.311782
      pz      :     0.931895  p :     2.847829
      px      :     0.908289
      py      :     1.007644
      dz2     :     0.009868  d :     0.040420
      dxz     :     0.004741
      dyz     :     0.008932
      dx2y2   :     0.006160
      dxy     :     0.010719

  2 C s       :     3.521017  s :     3.521017
      pz      :     0.938250  p :     2.853370
      px      :     0.895918
      py      :     1.019202
      dz2     :     0.009690  d :     0.040280
      dxz     :     0.004866
      dyz     :     0.009027
      dx2y2   :     0.005984
      dxy     :     0.010713

  3 C s       :     3.475836  s :     3.475836
      pz      :     0.951333  p :     2.676805
      px      :     0.730191
      py      :     0.995281
      dz2     :     0.009907  d :     0.040131
      dxz     :     0.004633
      dyz     :     0.008809
      dx2y2   :     0.006246
      dxy     :     0.010536

  4 C s       :     3.412603  s :     3.412603
      pz      :     0.903840  p :     2.736395
      px      :     0.815108
      py      :     1.017447
      dz2     :     0.008959  d :     0.039371
      dxz     :     0.004848
      dyz     :     0.009563
      dx2y2   :     0.005769
      dxy     :     0.010231

  5 C s       :     3.670792  s :     3.670792
      pz      :     0.997950  p :     2.631905
      px      :     0.584667
      py      :     1.049288
      dz2     :     0.013389  d :     0.061430
      dxz     :     0.009047
      dyz     :     0.009674
      dx2y2   :     0.014972
      dxy     :     0.014349

  6 O s       :     3.685575  s :     3.685575
      pz      :     1.649464  p :     4.501076
      px      :     1.359779
      py      :     1.491834
      dz2     :     0.004680  d :     0.028159
      dxz     :     0.003759
      dyz     :     0.005845
      dx2y2   :     0.009147
      dxy     :     0.004727

  7 C s       :     3.079734  s :     3.079734
      pz      :     0.725363  p :     2.260674
      px      :     0.852083
      py      :     0.683227
      dz2     :     0.018834  d :     0.129116
      dxz     :     0.017312
      dyz     :     0.024041
      dx2y2   :     0.042217
      dxy     :     0.026713

  8 O s       :     3.953344  s :     3.953344
      pz      :     1.473288  p :     4.561325
      px      :     1.575817
      py      :     1.512219
      dz2     :     0.004795  d :     0.025531
      dxz     :     0.004839
      dyz     :     0.004181
      dx2y2   :     0.005836
      dxy     :     0.005881

  9 C s       :     2.901419  s :     2.901419
      pz      :     0.974378  p :     3.040550
      px      :     1.001789
      py      :     1.064383
      dz2     :     0.005684  d :     0.038131
      dxz     :     0.005284
      dyz     :     0.005797
      dx2y2   :     0.012441
      dxy     :     0.008925

 10 C s       :     2.983152  s :     2.983152
      pz      :     0.949882  p :     3.028781
      px      :     1.039580
      py      :     1.039319
      dz2     :     0.003621  d :     0.036080
      dxz     :     0.007244
      dyz     :     0.004984
      dx2y2   :     0.008610
      dxy     :     0.011620

 11 C s       :     3.663641  s :     3.663641
      pz      :     1.015185  p :     2.816209
      px      :     0.801505
      py      :     0.999519
      dz2     :     0.003255  d :     0.035960
      dxz     :     0.007027
      dyz     :     0.005034
      dx2y2   :     0.009566
      dxy     :     0.011078

 12 C s       :     2.081840  s :     2.081840
      pz      :     1.180040  p :     3.407030
      px      :     1.404027
      py      :     0.822963
      dz2     :     0.005498  d :     0.038868
      dxz     :     0.005605
      dyz     :     0.005634
      dx2y2   :     0.011947
      dxy     :     0.010185

 13 C s       :     3.382990  s :     3.382990
      pz      :     1.056019  p :     3.187538
      px      :     1.206841
      py      :     0.924677
      dz2     :     0.003629  d :     0.036082
      dxz     :     0.007184
      dyz     :     0.005165
      dx2y2   :     0.008602
      dxy     :     0.011502

 14 C s       :     3.244479  s :     3.244479
      pz      :     0.958142  p :     2.799516
      px      :     0.766436
      py      :     1.074938
      dz2     :     0.003321  d :     0.036126
      dxz     :     0.007536
      dyz     :     0.005222
      dx2y2   :     0.009255
      dxy     :     0.010793

 15 C s       :     2.662241  s :     2.662241
      pz      :     0.763642  p :     3.193921
      px      :     1.581659
      py      :     0.848620
      dz2     :     0.007526  d :     0.087854
      dxz     :     0.007478
      dyz     :     0.017244
      dx2y2   :     0.026596
      dxy     :     0.029010

 16 O s       :     3.938556  s :     3.938556
      pz      :     1.503190  p :     4.605622
      px      :     1.763145
      py      :     1.339287
      dz2     :     0.003088  d :     0.024046
      dxz     :     0.000823
      dyz     :     0.007618
      dx2y2   :     0.007091
      dxy     :     0.005427

 17 C s       :     2.654641  s :     2.654641
      pz      :     1.155162  p :     2.621543
      px      :     0.354241
      py      :     1.112140
      dz2     :     0.003901  d :     0.035694
      dxz     :     0.004914
      dyz     :     0.005153
      dx2y2   :     0.010693
      dxy     :     0.011033

 18 C s       :     3.792294  s :     3.792294
      pz      :     1.059640  p :     3.492614
      px      :     1.341702
      py      :     1.091272
      dz2     :     0.005230  d :     0.038531
      dxz     :     0.003732
      dyz     :     0.007247
      dx2y2   :     0.013234
      dxy     :     0.009088

 19 C s       :     3.060588  s :     3.060588
      pz      :     1.148267  p :     3.230050
      px      :     1.109159
      py      :     0.972625
      dz2     :     0.003105  d :     0.033864
      dxz     :     0.005354
      dyz     :     0.004455
      dx2y2   :     0.011839
      dxy     :     0.009111

 20 C s       :     3.379221  s :     3.379221
      pz      :     0.844513  p :     2.355128
      px      :     0.758211
      py      :     0.752404
      dz2     :     0.006879  d :     0.061379
      dxz     :     0.011758
      dyz     :     0.010609
      dx2y2   :     0.014887
      dxy     :     0.017247

 21 C s       :     2.503034  s :     2.503034
      pz      :     1.118130  p :     3.379109
      px      :     1.014431
      py      :     1.246549
      dz2     :     0.003912  d :     0.031375
      dxz     :     0.003336
      dyz     :     0.004692
      dx2y2   :     0.009877
      dxy     :     0.009557

 22 C s       :     3.206265  s :     3.206265
      pz      :     0.813582  p :     2.559426
      px      :     0.814913
      py      :     0.930931
      dz2     :     0.008056  d :     0.075743
      dxz     :     0.009990
      dyz     :     0.015235
      dx2y2   :     0.021473
      dxy     :     0.020990

 23 O s       :     3.989059  s :     3.989059
      pz      :     1.750888  p :     4.717760
      px      :     1.620941
      py      :     1.345931
      dz2     :     0.004402  d :     0.028000
      dxz     :     0.003093
      dyz     :     0.003841
      dx2y2   :     0.006026
      dxy     :     0.010638

 24 N s       :     3.230075  s :     3.230075
      pz      :     1.575415  p :     3.785041
      px      :     1.084915
      py      :     1.124710
      dz2     :     0.003842  d :     0.038109
      dxz     :     0.005960
      dyz     :     0.005186
      dx2y2   :     0.011413
      dxy     :     0.011709

 25 C s       :     3.440297  s :     3.440297
      pz      :     0.920888  p :     2.846585
      px      :     1.110650
      py      :     0.815047
      dz2     :     0.011599  d :     0.054301
      dxz     :     0.009826
      dyz     :     0.012344
      dx2y2   :     0.009884
      dxy     :     0.010648

 26 C s       :     3.484816  s :     3.484816
      pz      :     0.888716  p :     3.105115
      px      :     1.107944
      py      :     1.108455
      dz2     :     0.007925  d :     0.033341
      dxz     :     0.008482
      dyz     :     0.004065
      dx2y2   :     0.006692
      dxy     :     0.006177

 27 C s       :     3.431325  s :     3.431325
      pz      :     0.970324  p :     2.829855
      px      :     0.755111
      py      :     1.104420
      dz2     :     0.009490  d :     0.054247
      dxz     :     0.013857
      dyz     :     0.008913
      dx2y2   :     0.015113
      dxy     :     0.006874

 28 C s       :     3.497406  s :     3.497406
      pz      :     0.933644  p :     3.101865
      px      :     1.060302
      py      :     1.107919
      dz2     :     0.007438  d :     0.033341
      dxz     :     0.005027
      dyz     :     0.008181
      dx2y2   :     0.010096
      dxy     :     0.002598

 29 H s       :     0.796117  s :     0.796117

 30 H s       :     0.800132  s :     0.800132

 31 H s       :     0.796414  s :     0.796414

 32 H s       :     0.805174  s :     0.805174

 33 H s       :     0.805652  s :     0.805652

 34 H s       :     0.802937  s :     0.802937

 35 H s       :     0.802203  s :     0.802203

 36 H s       :     0.795171  s :     0.795171

 37 H s       :     0.796181  s :     0.796181

 38 H s       :     0.781045  s :     0.781045

 39 H s       :     0.787598  s :     0.787598

 40 H s       :     0.769578  s :     0.769578

 41 H s       :     0.779224  s :     0.779224

 42 H s       :     0.771338  s :     0.771338

 43 H s       :     0.774349  s :     0.774349

 44 H s       :     0.767045  s :     0.767045

 45 H s       :     0.766993  s :     0.766993

 46 H s       :     0.776490  s :     0.776490

 47 H s       :     0.794956  s :     0.794956

 48 H s       :     0.792267  s :     0.792267

 49 H s       :     0.429072  s :     0.429072

 50 H s       :     0.786447  s :     0.786447

 51 H s       :     0.772027  s :     0.772027

 52 H s       :     0.781453  s :     0.781453

 53 H s       :     0.779208  s :     0.779208

 54 H s       :     0.784324  s :     0.784324

 55 H s       :     0.772057  s :     0.772057

 56 H s       :     0.785176  s :     0.785176

 57 H s       :     0.781815  s :     0.781815

 58 H s       :     0.784054  s :     0.784054

 59 H s       :     0.777624  s :     0.777624



                     *******************************
                     * LOEWDIN POPULATION ANALYSIS *
                     *******************************

----------------------
LOEWDIN ATOMIC CHARGES
----------------------
   0 C :   -0.524060
   1 C :   -0.399059
   2 C :   -0.396658
   3 C :   -0.386664
   4 C :   -0.366559
   5 C :   -0.143443
   6 O :   -0.359172
   7 C :    0.205526
   8 O :   -0.374113
   9 C :   -0.086218
  10 C :   -0.142469
  11 C :   -0.149351
  12 C :   -0.087450
  13 C :   -0.170941
  14 C :   -0.142823
  15 C :    0.143225
  16 O :   -0.433415
  17 C :   -0.165257
  18 C :   -0.139286
  19 C :   -0.242019
  20 C :    0.006898
  21 C :   -0.250129
  22 C :    0.107054
  23 O :   -0.467966
  24 N :   -0.330033
[...]
  0-1A  ->  6-1A    4.533272   36563.3   273.5   0.028653034   0.25799   0.05735  -0.43797   0.25076
  0-1A  ->  7-1A    4.579997   36940.2   270.7   0.017374658   0.15484   0.33465   0.20156  -0.04723
  0-1A  ->  8-1A    4.785942   38601.2   259.1   0.004165208   0.03552  -0.14248  -0.11586  -0.04242
  0-1A  ->  9-1A    4.852422   39137.4   255.5   0.348510477   2.93156  -1.60032  -0.60476  -0.06930
  0-1A  -> 10-1A    4.946443   39895.8   250.7   0.004518806   0.03729  -0.09261   0.16941  -0.00356
  0-1A  -> 11-1A    5.030385   40572.8   246.5   0.013279845   0.10775   0.18964   0.21006  -0.16633
  0-1A  -> 12-1A    5.199891   41940.0   238.4   0.062354794   0.48946  -0.68727  -0.12783  -0.02799
  0-1A  -> 13-1A    5.210019   42021.6   238.0   0.016428223   0.12870   0.25732  -0.24052  -0.06815
  0-1A  -> 14-1A    5.361317   43241.9   231.3   0.035146879   0.26758  -0.04243   0.48546   0.17352
  0-1A  -> 15-1A    5.383191   43418.4   230.3   0.011219069   0.08507   0.21094   0.19459  -0.05201
  0-1A  -> 16-1A    5.384764   43431.1   230.3   0.001676069   0.01270  -0.07087  -0.05574  -0.06764
  0-1A  -> 17-1A    5.502794   44383.0   225.3   0.003478997   0.02581  -0.14484  -0.06929   0.00491
  0-1A  -> 18-1A    5.576008   44973.5   222.4   0.038068037   0.27866   0.37180   0.36726  -0.07449
  0-1A  -> 19-1A    5.583861   45036.9   222.0   0.002614374   0.01911  -0.02291   0.02119   0.13467
  0-1A  -> 20-1A    5.716325   46105.3   216.9   0.001460982   0.01043   0.04121  -0.07223   0.05930
  0-1A  -> 21-1A    5.749272   46371.0   215.7   0.139326250   0.98915   0.99403  -0.00748  -0.03150
  0-1A  -> 22-1A    5.773988   46570.4   214.7   0.003281369   0.02320   0.11411  -0.09888   0.01994

----------------------------------------------------------------------------------------------------
                     ABSORPTION SPECTRUM VIA TRANSITION VELOCITY DIPOLE MOMENTS    
----------------------------------------------------------------------------------------------------
     Transition      Energy     Energy  Wavelength fosc(P2)      P2        PX        PY        PZ   
                      (eV)      (cm-1)    (nm)                 (au**2)    (au)      (au)      (au)  
----------------------------------------------------------------------------------------------------
  0-1A  ->  1-1A    3.172858   25590.8   390.8   0.143799943   0.02515   0.15575  -0.02428  -0.01743
  0-1A  ->  2-1A    3.658879   29510.9   338.9   0.006168417   0.00124  -0.03363   0.00951   0.00479
  0-1A  ->  3-1A    4.016957   32398.9   308.7   0.062900952   0.01393  -0.11158   0.03232   0.02084
  0-1A  ->  4-1A    4.184664   33751.6   296.3   0.234335598   0.05406   0.21204  -0.08462  -0.04397
  0-1A  ->  5-1A    4.412189   35586.7   281.0   0.005740144   0.00140   0.03389  -0.01364  -0.00783
  0-1A  ->  6-1A    4.533272   36563.3   273.5   0.000460941   0.00012  -0.00264  -0.00977   0.00358
  0-1A  ->  7-1A    4.579997   36940.2   270.7   0.002768338   0.00070  -0.02611   0.00243  -0.00332
  0-1A  ->  8-1A    4.785942   38601.2   259.1   0.001878968   0.00050   0.01951  -0.00198  -0.01054
  0-1A  ->  9-1A    4.852422   39137.4   255.5   0.138922985   0.03716   0.19107   0.01685  -0.01918
  0-1A  -> 10-1A    4.946443   39895.8   250.7   0.015869960   0.00433  -0.05543  -0.03236  -0.01441
  0-1A  -> 11-1A    5.030385   40572.8   246.5   0.010926512   0.00303  -0.02808  -0.03562   0.03119
  0-1A  -> 12-1A    5.199891   41940.0   238.4   0.043365341   0.01243   0.11036   0.01441  -0.00663
  0-1A  -> 13-1A    5.210019   42021.6   238.0   0.006312474   0.00181  -0.03869   0.01566   0.00840
  0-1A  -> 14-1A    5.361317   43241.9   231.3   0.005024708   0.00148   0.01453  -0.03409  -0.01058
  0-1A  -> 15-1A    5.383191   43418.4   230.3   0.007637825   0.00227  -0.03743  -0.02942  -0.00012
  0-1A  -> 16-1A    5.384764   43431.1   230.3   0.001565325   0.00046   0.00839   0.01267   0.01529
  0-1A  -> 17-1A    5.502794   44383.0   225.3   0.003608757   0.00109   0.02469  -0.02072  -0.00745
  0-1A  -> 18-1A    5.576008   44973.5   222.4   0.035749853   0.01099  -0.09646  -0.03188  -0.02584
  0-1A  -> 19-1A    5.583861   45036.9   222.0   0.001226426   0.00038   0.01921   0.00283  -0.00065
  0-1A  -> 20-1A    5.716325   46105.3   216.9   0.002442664   0.00077  -0.01178   0.01791  -0.01762
  0-1A  -> 21-1A    5.749272   46371.0   215.7   0.081477569   0.02582  -0.15911  -0.02059   0.00914
  0-1A  -> 22-1A    5.773988   46570.4   214.7   0.002888442   0.00092  -0.02220   0.01880   0.00856

------------------------------------------------------------------------------------------
                     CD SPECTRUM VIA TRANSITION ELECTRIC DIPOLE MOMENTS    
------------------------------------------------------------------------------------------
     Transition      Energy     Energy  Wavelength    R        MX        MY        MZ   
                      (eV)      (cm-1)    (nm)   (1e40*cgs)   (au)      (au)      (au)  
------------------------------------------------------------------------------------------
  0-1A  ->  1-1A    3.172858   25590.8   390.8   -1.99631   0.03300  -0.09492   0.36800
  0-1A  ->  2-1A    3.658879   29510.9   338.9    2.73542  -0.00782  -0.03653   0.11021
  0-1A  ->  3-1A    4.016957   32398.9   308.7   34.02200   0.03000   0.28806  -0.23216
  0-1A  ->  4-1A    4.184664   33751.6   296.3  -43.96167   0.09764  -0.05276   0.54037
  0-1A  ->  5-1A    4.412189   35586.7   281.0    9.02362   0.01248  -0.03760   0.27209
  0-1A  ->  6-1A    4.533272   36563.3   273.5  -38.76193  -0.02860  -0.09330   0.17147
  0-1A  ->  7-1A    4.579997   36940.2   270.7   22.20683  -0.03019  -0.12251   0.26060
  0-1A  ->  8-1A    4.785942   38601.2   259.1   -4.79281  -0.14783   0.11657  -0.06148
  0-1A  ->  9-1A    4.852422   39137.4   255.5    1.03457   0.08727  -0.29759   0.61337
  0-1A  -> 10-1A    4.946443   39895.8   250.7    0.20227  -0.06658  -0.03989  -0.04590
  0-1A  -> 11-1A    5.030385   40572.8   246.5   11.16301   0.02413   0.09999   0.29614
  0-1A  -> 12-1A    5.199891   41940.0   238.4   29.45867   0.08050  -0.02356   0.36340
  0-1A  -> 13-1A    5.210019   42021.6   238.0    2.71893  -0.00638   0.03572  -0.06551
  0-1A  -> 14-1A    5.361317   43241.9   231.3   -6.57464  -0.04278   0.00979   0.04253
  0-1A  -> 15-1A    5.383191   43418.4   230.3    4.66151  -0.01473  -0.00137   0.12524
  0-1A  -> 16-1A    5.384764   43431.1   230.3   -4.61689  -0.06889   0.06400  -0.12533
  0-1A  -> 17-1A    5.502794   44383.0   225.3   -2.98322  -0.00424  -0.06989   0.17747
  0-1A  -> 18-1A    5.576008   44973.5   222.4  -39.47660   0.01727   0.17383  -0.18087
  0-1A  -> 19-1A    5.583861   45036.9   222.0    2.79444   0.15948  -0.19797   0.01427
  0-1A  -> 20-1A    5.716325   46105.3   216.9    3.59027  -0.10542   0.02691  -0.02238
  0-1A  -> 21-1A    5.749272   46371.0   215.7   13.34172  -0.03854   0.13386  -0.34978
  0-1A  -> 22-1A    5.773988   46570.4   214.7    2.98129  -0.06261  -0.03218  -0.11842

------------------------------------------------------------------------------------------
                     CD SPECTRUM VIA TRANSITION VELOCITY DIPOLE MOMENTS    
------------------------------------------------------------------------------------------
     Transition      Energy     Energy  Wavelength    R        MX        MY        MZ   
                      (eV)      (cm-1)    (nm)   (1e40*cgs)   (au)      (au)      (au)  
------------------------------------------------------------------------------------------
  0-1A  ->  1-1A    3.172858   25590.8   390.8    4.16341   0.03300  -0.09492   0.36800
  0-1A  ->  2-1A    3.658879   29510.9   338.9    1.55561  -0.00782  -0.03653   0.11021
  0-1A  ->  3-1A    4.016957   32398.9   308.7    3.59349   0.03000   0.28806  -0.23216
  0-1A  ->  4-1A    4.184664   33751.6   296.3    4.30993   0.09764  -0.05276   0.54037
  0-1A  ->  5-1A    4.412189   35586.7   281.0   -3.47031   0.01248  -0.03760   0.27209
  0-1A  ->  6-1A    4.533272   36563.3   273.5    4.52857  -0.02860  -0.09330   0.17147
  0-1A  ->  7-1A    4.579997   36940.2   270.7   -1.04968  -0.03019  -0.12251   0.26060
  0-1A  ->  8-1A    4.785942   38601.2   259.1   -6.61171  -0.14783   0.11657  -0.06148
  0-1A  ->  9-1A    4.852422   39137.4   255.5   -0.27360   0.08727  -0.29759   0.61337
  0-1A  -> 10-1A    4.946443   39895.8   250.7   14.63484  -0.06658  -0.03989  -0.04590
  0-1A  -> 11-1A    5.030385   40572.8   246.5   12.74237   0.02413   0.09999   0.29614
  0-1A  -> 12-1A    5.199891   41940.0   238.4   15.13065   0.08050  -0.02356   0.36340
  0-1A  -> 13-1A    5.210019   42021.6   238.0    0.63022  -0.00638   0.03572  -0.06551
  0-1A  -> 14-1A    5.361317   43241.9   231.3   -3.36261  -0.04278   0.00979   0.04253
  0-1A  -> 15-1A    5.383191   43418.4   230.3    1.37329  -0.01473  -0.00137   0.12524
  0-1A  -> 16-1A    5.384764   43431.1   230.3   -4.01189  -0.06889   0.06400  -0.12533
  0-1A  -> 17-1A    5.502794   44383.0   225.3    0.05156  -0.00424  -0.06989   0.17747
  0-1A  -> 18-1A    5.576008   44973.5   222.4   -5.82895   0.01727   0.17383  -0.18087
  0-1A  -> 19-1A    5.583861   45036.9   222.0    5.72996   0.15948  -0.19797   0.01427
  0-1A  -> 20-1A    5.716325   46105.3   216.9    4.75268  -0.10542   0.02691  -0.02238
  0-1A  -> 21-1A    5.749272   46371.0   215.7    0.40224  -0.03854   0.13386  -0.34978
  0-1A  -> 22-1A    5.773988   46570.4   214.7   -0.50674  -0.06261  -0.03218  -0.11842

Total run time:     2042.837 sec

           *** ORCA-CIS/TD-DFT FINISHED WITHOUT ERROR ***
-----------------------
CIS/TD-DFT TOTAL ENERGY
-----------------------

    E(SCF)  =  -1288.172497401 Eh
    DE(CIS) =      0.116600406 Eh (Root  1)
    ----------------------------- ---------
    E(tot)  =  -1288.055896996 Eh


Maximum memory used throughout the entire CIS-calculation: 1408.2 MB
=> NOW LEAVING ORCA_CIS

-------------------------   --------------------
FINAL SINGLE POINT ENERGY     -1288.055896995555
-------------------------   --------------------



           ************************************************************
           *        Program running with 4 parallel MPI-processes     *
           *              working on a common directory               *
           ************************************************************

------------------------------------------------------------------------------
                              ORCA PROPERTY CALCULATIONS
------------------------------------------------------------------------------

GBWName                                 ... td.gbw
Number of atoms                         ...     60
Number of basis functions               ...    584
Max core memory                         ...   2500 MB

Electric properties:
Dipole moment                           ... YES
Quadrupole moment                       ...  NO
Static polarizability (Dipole/Dipole)   ...  NO
Static polarizability (Dipole/Quad.)    ...  NO
Static polarizability (Quad./Quad.)     ...  NO
Static polarizability (Velocity)        ...  NO
Static hyperpolarizability              ...  NO

Atomic electric properties:
Dipole moment                           ...  NO
Quadrupole moment                       ...  NO
Static polarizability                   ...  NO

Choice of electric origin               ... Center of mass
Position of electric origin             ...    -0.731883    -1.385809    -0.422874

General magnetic properties:
Magnetizability                         ...  NO

EPR properties:
g-Tensor (aka g-matrix)                 ...  NO
Zero-Field splitting spin-orbit         ...  NO
Zero-field splitting spin-spin          ...  NO
Hyperfine couplings                     ...  NO (   0 nuclei)
Quadrupole couplings                    ...  NO (   0 nuclei)
Contact density                         ...  NO (   0 nuclei)

NMR properties:
Chemical shifts                         ...  NO (   0 nuclei)
Spin-rotation constants                 ...  NO (   0 nuclei)
Spin-spin couplings                     ...  NO (   0 nuclei,    0 pairs)

Choice of magnetic origin               ... GIAO
Position of magnetic origin             ...     0.000000     0.000000     0.000000

Properties with geometric perturbations:
SCF Hessian                             ...  NO
IR spectrum                             ...  NO
VCD spectrum                            ...  NO
X-ray spectroscopy properties:
SCF XES/XAS/RIXS spectra                ...  NO

SCF SOC stabilization energy            ...  NO
Diagonal Born-Oppenheimer correction    ...  NO

-------------
DIPOLE MOMENT
-------------

Method             : SCF
Type of density    : Electron Density
Multiplicity       :   1
Irrep              :   0
Energy             : -1288.1724974011078757 Eh
Basis              : AO
                                X                 Y                 Z
Electronic contribution:    -24.288555802     -34.453413344     -12.154650713
Nuclear contribution   :     23.273631344      38.657545717      12.818519646
                        -----------------------------------------
Total Dipole Moment    :     -1.014924458       4.204132373       0.663868933
                        -----------------------------------------
Magnitude (a.u.)       :      4.375559693
Magnitude (Debye)      :     11.121788877



--------------------
Rotational spectrum 
--------------------
 
Rotational constants in cm-1:             0.008476             0.001481             0.001298 
Rotational constants in MHz :           254.100901            44.386530            38.925661 

Dipole components along the rotational axes: 
x,y,z [a.u.] :    -0.853941     4.185747    -0.946483 
x,y,z [Debye]:    -2.170546    10.639323    -2.405769 

 

Dipole moment calculation done in   0.1 sec 

Maximum memory used throughout the entire PROP-calculation: 44.0 MB

--------------------------------
SUGGESTED CITATIONS FOR THIS RUN
--------------------------------

Below you find a list of papers that are relevant to this ORCA run
We neither can nor want to force you to cite these papers, but we appreciate if you do
You receive ORCA, which is the product of decades of hard work by many enthusiastic individuals, for free
The only thing we kindly ask in return is that you cite our papers,
We deeply appreciate it, if you show your appreciation for ORCA by not just citing the generic ORCA reference.

Please note that relegating all ORCA citations to the supporting information does *not* help us.
SI sections are not indexed - citations you put there will not count into any citation statistics
But we need these citations in order to attract the funding resources that allow us to do what we are doing

Therefore, if you are a happy ORCA user, please consider citing a few of the papers listed below in the main body of your paper

In addition to the list printed below, the program has created the file td.bibtex that contains the list in bibtex format
You can import this file easily into all common literature databanks and citation aid programs

It goes without saying that in many instances, there are alternative algorithms to achieve similar
results as the ones you have gotten from ORCA. It is, of course, also the case that in some instances
ORCA just re-implements algorithms worked out by others. We are fully aware of that and we are also
fully appreciative of our colleagues work. Hence this citation list should not be read as indicating
that the listed papers, which are focused on our own work, are the only ones worth citing. It simply
meant to make it easier for users to cite ORCA specific papers. It is not a substitute for doing your
own literature research and citing the relevant literature in a scientifically appropriate manner.

List of essential papers. We consider these as the minimum necessary citations

  1. Neese, F.
     Software update: the ORCA program system, version 6.0
     WIRES Comput. Molec. Sci. 2025 15(1), e70019
     doi.org/10.1002/wcms.70019

List of papers to cite with high priority. The work reported in these papers was absolutely
necessary for this run to complete.
Our perspective: the developers of density functionals and basis sets usually get cited in chemistry papers
Good! But without the algorithms to do something with them, the functionals or basis sets would not do anything.
Hence, in our opinion, the algorithm design and method developments papers are equally worthy of getting cited

  1. Neese, F.; Olbrich, G.
     Efficient use of the resolution of the identity approximation in time-dependent density functional calculations with hybrid density functionals
     Chem. Phys. Lett. 2002 362 , 170-178
     doi.org/10.1016/s0009-2614(02)01053-9
  2. Neese, F.
     An improvement of the resolution of the identity approximation for the formation of the Coulomb matrix
     J. Comp. Chem. 2003 24(14), 1740-1747
     doi.org/10.1002/jcc.10318
  3. Neese, F.; Wennmohs, F.; Hansen, A.; Becker, U.
     Efficient, approximate and parallel Hartree-Fock and hybrid DFT calculations. A 'chain-of-spheres' algorithm for the Hartree-Fock exchange
     Chem. Phys. 2009 356(1-3), 98-109
     doi.org/10.1016/j.chemphys.2008.10.036
  4. Garcia-Rates, M.; Neese, F.
     Effect of the Solute Cavity on the Solvation Energy and its Derivatives within the Framework of the Gaussian Charge Scheme
     J. Comput. Chem. 2020 41 , 922-939
     doi.org/10.1002/jcc.26139
  5. Helmich-Paris, B.; de Souza, B.; Neese, F.; Izsák, R.
     An improved chain of spheres for exchange algorithm
     J. Chem. Phys. 2021 155(10), 104109
     doi.org/10.1063/5.0058766
  6. Neese, F.
     The SHARK Integral Generation and Digestion System
     J. Comp. Chem. 2022 44(3), 381
     doi.org/10.1002/jcc.26942

List of suggested additional citations. These are papers that are important in the 'surrounding' of 
of this run, or papers that preceded the highly important papers. If you like your results we are grateful for a citation.

  1. Izsak, R.; Neese, F.
     An overlap fitted chain of spheres exchange method
     J. Chem. Phys. 2011 135 , 144105
     doi.org/10.1063/1.3646921
  2. Izsak, R.; Hansen, A.; Neese, F.
     The resolution of identity and chain of spheres approximations for the LPNO-CCSD singles Fock term
     Molec. Phys. 2012 110 , 2413-2417
     doi.org/10.1080/00268976.2012.687466
  3. Neese, F.
     The ORCA program system
     WIRES Comput. Molec. Sci. 2012 2(1), 73-78
     doi.org/10.1002/wcms.81
  4. Izsak, R.; Neese, F.; Klopper, W.
     Robust fitting techniques in the chain of spheres approximation to the Fock exchange: The role of the complementary space
     J. Chem. Phys. 2013 139 , 
     doi.org/10.1063/1.4819264
  5. Neese, F.
     Software update: the ORCA program system, version 4.0
     WIRES Comput. Molec. Sci. 2018 8(1), 1-6
     doi.org/10.1002/wcms.1327
  6. Neese, F.; Wennmohs, F.; Becker, U.; Riplinger, C.
     The ORCA quantum chemistry program package
     J. Chem. Phys. 2020 152(22), 224108
     doi.org/10.1063/5.0004608
  7. Neese, F.
     Software update: The ORCA program system—Version 5.0
     WIRES Comput. Molec. Sci. 2022 12(1), e1606
     doi.org/10.1002/wcms.1606

List of optional additional citations

  1. Neese, F.
     Approximate second-order SCF convergence for spin unrestricted wavefunctions
     Chem. Phys. Lett. 2000 325(1-3), 93-98
     doi.org/10.1016/s0009-2614(00)00662-x

Timings for individual modules:

Sum of individual times          ...     2783.342 sec (=  46.389 min)
Startup calculation              ...       12.707 sec (=   0.212 min)   0.5 %
SCF iterations                   ...      725.022 sec (=  12.084 min)  26.0 %
Property integrals               ...        1.296 sec (=   0.022 min)   0.0 %
Property calculations            ...        0.926 sec (=   0.015 min)   0.0 %
CIS module                       ...     2043.391 sec (=  34.057 min)  73.4 %
                             ****ORCA TERMINATED NORMALLY****
TOTAL RUN TIME: 0 days 0 hours 46 minutes 25 seconds 177 msec
