
                                 *****************
                                 * O   R   C   A *
                                 *****************

                                            #,                                       
                                            ###                                      
                                            ####                                     
                                            #####                                    
                                            ######                                   
                                           ########,                                 
                                     ,,################,,,,,                         
                               ,,#################################,,                 
                          ,,##########################################,,             
                       ,#########################################, ''#####,          
                    ,#############################################,,   '####,        
                  ,##################################################,,,,####,       
                ,###########''''           ''''###############################       
              ,#####''   ,,,,##########,,,,          '''####'''          '####       
            ,##' ,,,,###########################,,,                        '##       
           ' ,,###''''                  '''############,,,                           
         ,,##''                                '''############,,,,        ,,,,,,###''
      ,#''                                            '''#######################'''  
     '                                                          ''''####''''         
             ,#######,   #######,   ,#######,      ##                                
            ,#'     '#,  ##    ##  ,#'     '#,    #''#        ,####,    ,#,          
            ##       ##  ##   ,#'  ##            #'  '#       #'       ,# #          
            ##       ##  #######   ##           ,######,      #####,      #          
            '#,     ,#'  ##    ##  '#,     ,#' ,#      #,     #,   #      #          
             '#######'   ##     ##  '#######'  #'      '#     '####' #    #          



                #########################################################
                #                        -***-                          #
                #          Department of theory and spectroscopy        #
                #                                                       #
                #                      Frank Neese                      #
                #                                                       #
                #     Directorship, Architecture, Infrastructure        #
                #                    SHARK, DRIVERS                     #
                #        Core code/Algorithms in most modules           #
                #                                                       #
                #        Max Planck Institute fuer Kohlenforschung      #
                #                Kaiser Wilhelm Platz 1                 #
                #                 D-45470 Muelheim/Ruhr                 #
                #                      Germany                          #
                #                                                       #
                #                  All rights reserved                  #
                #                        -***-                          #
                #########################################################


                         Program Version 6.1.1  -  RELEASE   -


 With contributions from (in alphabetic order):
[Max-Planck-Institut fuer Kohlenforschung]                               
  Daniel Aravena         : Magnetic Suceptibility                        
  Michael Atanasov       : Ab Initio Ligand Field Theory (pilot matlab implementation)
  Alexander A. Auer      : GIAO ZORA, VPT2 properties, NMR spectrum      
  Ute Becker             : All parallelization in ORCA, NUMFREQ, NUMCALC 
  Giovanni Bistoni       : ED, misc. LED, open-shell LED, HFLD           
  Dmytro Bykov           : pre 5.0 version of the SCF Hessian            
  Marcos Casanova-Páez   : Triplet and SCS-CIS(D). UHF-(DLPNO)-IP/EA/STEOM-CCSD. UHF-CVS-IP/STEOM-CCSD   
  Vijay G. Chilkuri      : MRCI spin determinant printing, contributions to CSF-ICE 
  Pauline Colinet        : FMM embedding                                 
  Dipayan Datta          : RHF DLPNO-CCSD density                        
  Achintya Kumar Dutta   : EOM-CC, STEOM-CC                              
  Nicolas Foglia         : Exact transition moments, OPA infrastructure, MCD improvements    
  Dmitry Ganyushin       : Spin-Orbit,Spin-Spin,Magnetic field MRCI      
  Miquel Garcia-Rates    : C-PCM and meta-GGA Hessian, CCSD/C-PCM, Gaussian charge scheme 
  Tiago L. C. Gouveia    : GS-ROHF, GS-ROCIS                             
  Yang Guo               : DLPNO-NEVPT2, F12-NEVPT2, CIM, IAO-localization        
  Andreas Hansen         : Spin unrestricted coupled pair/coupled cluster methods 
  Ingolf Harden          : AUTO-CI MPn and infrastructure                
  Benjamin Helmich-Paris : MC-RPA, TRAH-(SCF,CASSCF), AVAS, COSX integrals, SCF dyn. polar., MC-PDFT, srDFT 
  Lee Huntington         : MR-EOM, pCC                                   
  Robert Izsak           : Overlap fitted RIJCOSX, COSX-SCS-MP3, EOM     
  Riya Kayal             : Wick's Theorem for AUTO-CI, AUTO-CI UHF-CCSDT 
  Emily Kempfer          : AUTO-CI RHF CISDT and CCSDT, approximate NEVPT4
  Christian Kollmar      : KDIIS, OOCD, Brueckner-CCSD(T), CCSD density, CASPT2, CASPT2-K, improved NEVPT2 
  Axel Koslowski         : Symmetry handling                             
  Simone Kossmann        : meta-GGA functionals, TD-DFT gradient, OOMP2, (MP2 Hessian; deprecated post 5.0) 
  Lucas Lang             : DCDCAS, Hyperfine gauge corrections, ICE-SOC+SSC
  Marvin Lechner         : AUTO-CI (C++ implementation), FIC-MRCC        
  Spencer Leger          : CASSCF response                               
  Dagmar Lenk            : GEPOL surface, SMD, ORCA-2-JSON               
  Dimitrios Liakos       : Extrapolation schemes; Compound Job, Property file
  Dimitrios Manganas     : Further ROCIS development; embedding schemes. LFT, Crystal Embedding 
  Dimitrios Pantazis     : SARC Basis sets                               
  Anastasios Papadopoulos: AUTO-CI, single reference methods and gradients 
  Taras Petrenko         : pre 6.0 DFT Hessian and TD-DFT gradient,  ECA, NRVS 
  Petra Pikulova         : Analytic Raman intensities                    
  Peter Pinski           : DLPNO-MP2, DLPNO-MP2 Gradient                 
  Shashank Vittal Rao    : ES-AILFT, MagRelax                            
  Christoph Reimann      : Effective Core Potentials                     
  Marius Retegan         : Local ZFS, SOC                                
  Christoph Riplinger    : Optimizer, TS searches, QM/MM, DLPNO-CCSD(T), (RO)-DLPNO pert. Triples 
  Michael Roemelt        : Original ROCIS implementation, recursive CI coupling coefficients
  Masaaki Saitow         : Open-shell DLPNO-CCSD energy and density      
  Barbara Sandhoefer     : DKH picture change effects                    
  Yorick L. A. Schmerwitz: GMF and freeze-and-release deltaSCF, NEB S-IDPP initial path                    
  Kantharuban Sivalingam : CASSCF convergence/infrastructure, NEVPT2, NEVPT3, NEVPT4(SD), FIC-MRCI and CEPA variants
  Bernardo de Souza      : ESD, SOC TD-DFT                               
  Georgi L. Stoychev     : AutoAux, RI-MP2 NMR, DLPNO-MP2 response, X2C  
  Van Anh Tran           : RI-MP2 g-tensors                              
  Willem Van den Heuvel  : Paramagnetic NMR                              
  Zikuan Wang            : NOTCH, Electric field optimization            
  Frank Wennmohs         : Technical directorship and infrastructure     
  Hang Xu                : AUTO-CI-Response properties                   
                                                                         
[FACCTs GmbH]                                                            
  Markus Bursch, Nicolas Foglia, Miquel Garcia-Rates, Ingolf Harden, Hagen Neugebauer, Anastasios Papadopoulos, 
  Christoph Riplinger, Bernardo de Souza, Georgi L. Stoychev                                                    
                                                                 
  APM, various basis sets, CI-OPT, improved COSX, DLPNO-Multilevel,           
  DOCKER, DRACO, updates on ESD, Fragmentator, GOAT, IRC, LR-CPCM, L-BFGS, MBIS, meta-GGA TD-DFT gradient, ML-optimized integration grids, 
  MM, NACMEs, nearIR, NEB, NEB-TS, NL-DFT gradient (VV10), 2- and 3-layer-ONIOM, interface openCOSMO-RS, QMMM,   
  Crystal-QMMM, RESP, rigid body optimization, SF, symmetry and pop. for TD-DFT, various functionals, SOLVATOR                                   
                                                                         
[Other institutions]                                                     
  V. Asgeirsson          : NEB                                           
  Christoph Bannwarth    : sTDA-DFT, sTD-DFT, PBEh-3c, B97-3c, D3        
  Giovanni Bistoni       : ETS/NOCV, ADLD/ADEX, COVALED                  
  Martin Brehm           : Molecular dynamics                            
  Ronald Cardenas        : ETS/NOCV                                      
  Martina Colucci        : COVALED                                       
  Sebastian Ehlert       : rSCAN, r2SCAN, r2SCAN-3c, D4, dhf basis sets  
  Marvin Friede          : D4 for Fr, Ra, Ac-Lr                          
  Lars Goerigk           : TD-DFT with DH, B97 family of functionals     
  Stefan Grimme          : VdW corrections, initial TS optimization, DFT functionals, gCP, sTDA/sTD-DF 
  Waldemar Hujo          : DFT-NL                                        
  H. Jonsson             : NEB                                           
  Holger Kruse           : gCP                                           
  Marcel Mueller         : wB97X-3c, vDZP basis set                      
  Hagen Neugebauer       : wr2SCAN, Native XTB                           
  Gianluca Regni         : ADLD/ADEX                                     
  Tobias Risthaus        : pre 6.0 range-separated hybrid DFT and stability analysis
  Lukas Wittmann         : regularized MP2, r2SCAN double-hybrids, wr2SCAN        
                                                                         
We gratefully acknowledge several colleagues who have allowed us to      
interface, adapt or use parts of their codes:                            
  Ed Valeev, F. Pavosevic, A. Kumar             : LibInt (2-el integral package), F12 methods 
  Garnet Chan, S. Sharma, J. Yang, R. Olivares  : DMRG                   
  Ulf Ekstrom                                   : XCFun DFT Library      
  Mihaly Kallay                                 : mrcc  (arbitrary order and MRCC methods)
  Frank Weinhold                                : gennbo (NPA and NBO analysis)           
  Simon Mueller                                 : openCOSMO-RS                            
  Christopher J. Cramer and Donald G. Truhlar   : smd solvation model                     
  S Lehtola, MJT Oliveira, MAL Marques          : LibXC Library                           
  Liviu Ungur et al                             : ANISO software                          


 Your calculation uses the libint2 library for the computation of 2-el integrals
 For citations please refer to: http://libint.valeyev.net

 Your ORCA version has been built with support for libXC version: 7.0.0
 For citations please refer to: https://libxc.gitlab.io

 This ORCA versions uses:
   CBLAS   interface :  Fast vector & matrix operations
   LAPACKE interface :  Fast linear algebra routines
   Shared memory     :  Shared parallel matrices


  ***********************************
  * Starting time: Tue Jul 21 12:20:31 2026
  * Host name:     DESKTOP-19Q153E
  * Process ID:    11096
  * Working dir.:  C:\Users\ysm04\Documents\etc\uv_vis\calculations\02_tddft_orca\diketo\diketo_c000\b3lyp_def2svp\ethanol
  ***********************************

NOTE: MaxCore=2500 MB was set to SCF,MP2,MDCI,CIPSI,MRCI,RASCI and CIS
      => If you want to overwrite this, your respective input block should be placed after the MaxCore statement
================================================================================

----- Orbital basis set information -----
Your calculation utilizes the basis: def2-SVP
   F. Weigend and R. Ahlrichs, Phys. Chem. Chem. Phys. 7, 3297 (2005).

----- AuxJ basis set information -----
Your calculation utilizes the auxiliary basis: def2/J
   H-Rn: F. Weigend, Phys. Chem. Chem. Phys. 8, 1057 (2006).
   Fr-Lr: K. Eichkorn, F. Weigend, O. Treutler, R. Ahlrichs; Theor. Chem. Acc. 97, 119 (1997).

================================================================================
                                        WARNINGS
                       Please study these warnings very carefully!
================================================================================


WARNING: CIS/ROCIS methods need fully converged wavefunctions
  ===> : Setting SCFConvForced true
         You can overwrite this default with %scf ConvForced false 


================================================================================
                                       INPUT FILE
================================================================================
NAME = td.inp
|  1> # diketo / diketo_c000 / b3lyp_def2svp / solvent=ethanol
|  2> ! B3LYP def2-SVP RIJCOSX def2/J TightSCF CPCM(Ethanol)
|  3> %pal nprocs 4 end
|  4> %maxcore 2500
|  5> %scf
|  6>   MaxIter 300
|  7> end
|  8> %tddft
|  9>   nroots 18
| 10>   tda    true
| 11>   maxdim 5
| 12> end
| 13> * xyz 0 1
| 14> C     -4.9413530300     1.9642762800     0.2464523000
| 15> C     -4.4466744100     0.6180059200    -0.2908116600
| 16> C     -5.4995805200    -0.4497759400     0.0432756300
| 17> C     -4.2894274700     0.7361662300    -1.8146499100
| 18> C     -3.1154474700     0.2006997400     0.3099106600
| 19> C     -2.5272991400    -1.0017688000    -0.0853234100
| 20> C     -1.3199500500    -1.4289200400     0.4264477200
| 21> C     -0.6405004700    -0.6509156800     1.3667304000
| 22> C     -1.2262151300     0.5527597400     1.7685430800
| 23> C     -2.4354853500     0.9686723400     1.2519907900
| 24> C      0.6587575500    -1.0108459400     1.9522949500
| 25> O      1.2021993300    -0.3123034400     2.7916259900
| 26> C      1.3312830700    -2.2868455300     1.4686532100
| 27> C      1.8332935000    -2.1379243300     0.0379549900
| 28> O      1.2884858100    -2.7500269400    -0.8663543400
| 29> C      2.9625500800    -1.2350109100    -0.2055467100
| 30> C      3.3611731200    -1.0347698700    -1.5363529200
| 31> C      4.3938487500    -0.1883993800    -1.8484145400
| 32> C      5.0758679800     0.4971675300    -0.8339388500
| 33> O      6.0719292400     1.3112344200    -1.2405702900
| 34> C      6.7963953900     2.0553920600    -0.2774771400
| 35> C      4.6924672900     0.2995015600     0.4930240300
| 36> C      3.6531272300    -0.5556999500     0.7997616700
| 37> H     -5.0959409200     1.9240760800     1.3220193400
| 38> H     -4.2386425000     2.7608564300     0.0139852300
| 39> H     -5.8929177600     2.2097294300    -0.2199523400
| 40> H     -5.2337689500    -1.4153700200    -0.3772051900
| 41> H     -6.4655051300    -0.1558807300    -0.3608008000
| 42> H     -5.5946248300    -0.5602174400     1.1215291500
| 43> H     -3.5173821600     1.4630190400    -2.0587264500
| 44> H     -4.0152054700    -0.2151289800    -2.2614782000
| 45> H     -5.2260951700     1.0643413700    -2.2591885800
| 46> H     -3.0202152200    -1.6279450500    -0.8126803000
| 47> H     -0.9094246700    -2.3617903200     0.0756940600
| 48> H     -0.7037298500     1.1572367800     2.4958177500
| 49> H     -2.8414866600     1.9057750900     1.5941997000
| 50> H      2.1688458300    -2.5049088400     2.1316098900
| 51> H      0.6191784300    -3.1118396900     1.4942467700
| 52> H      2.8275677300    -1.5616525800    -2.3132094400
| 53> H      4.6999342100    -0.0288734900    -2.8700197500
| 54> H      7.5171754800     2.6377042300    -0.8480602900
| 55> H      6.1384667600     2.7282788800     0.2784666800
| 56> H      7.3243882900     1.3957848800     0.4159703700
| 57> H      5.1990350100     0.8099215800     1.2959525700
| 58> H      3.3809022600    -0.6737857500     1.8358656100
| 59> *
| 60> 
| 61>                          ****END OF INPUT****
================================================================================

                       ****************************
                       * Single Point Calculation *
                       ****************************

---------------------------------
CARTESIAN COORDINATES (ANGSTROEM)
---------------------------------
  C     -4.941353    1.964276    0.246452
  C     -4.446674    0.618006   -0.290812
  C     -5.499581   -0.449776    0.043276
  C     -4.289427    0.736166   -1.814650
  C     -3.115447    0.200700    0.309911
  C     -2.527299   -1.001769   -0.085323
  C     -1.319950   -1.428920    0.426448
  C     -0.640500   -0.650916    1.366730
  C     -1.226215    0.552760    1.768543
  C     -2.435485    0.968672    1.251991
  C      0.658758   -1.010846    1.952295
  O      1.202199   -0.312303    2.791626
  C      1.331283   -2.286846    1.468653
  C      1.833293   -2.137924    0.037955
  O      1.288486   -2.750027   -0.866354
  C      2.962550   -1.235011   -0.205547
  C      3.361173   -1.034770   -1.536353
  C      4.393849   -0.188399   -1.848415
  C      5.075868    0.497168   -0.833939
  O      6.071929    1.311234   -1.240570
  C      6.796395    2.055392   -0.277477
  C      4.692467    0.299502    0.493024
  C      3.653127   -0.555700    0.799762
  H     -5.095941    1.924076    1.322019
  H     -4.238643    2.760856    0.013985
  H     -5.892918    2.209729   -0.219952
  H     -5.233769   -1.415370   -0.377205
  H     -6.465505   -0.155881   -0.360801
  H     -5.594625   -0.560217    1.121529
  H     -3.517382    1.463019   -2.058726
  H     -4.015205   -0.215129   -2.261478
  H     -5.226095    1.064341   -2.259189
  H     -3.020215   -1.627945   -0.812680
  H     -0.909425   -2.361790    0.075694
  H     -0.703730    1.157237    2.495818
  H     -2.841487    1.905775    1.594200
  H      2.168846   -2.504909    2.131610
  H      0.619178   -3.111840    1.494247
  H      2.827568   -1.561653   -2.313209
  H      4.699934   -0.028873   -2.870020
  H      7.517175    2.637704   -0.848060
  H      6.138467    2.728279    0.278467
  H      7.324388    1.395785    0.415970
  H      5.199035    0.809922    1.295953
  H      3.380902   -0.673786    1.835866

----------------------------
CARTESIAN COORDINATES (A.U.)
----------------------------
  NO LB      ZA    FRAG     MASS         X           Y           Z
   0 C     6.0000    0    12.011   -9.337804    3.711944    0.465727
   1 C     6.0000    0    12.011   -8.402997    1.167862   -0.549554
   2 C     6.0000    0    12.011  -10.392701   -0.849953    0.081779
   3 C     6.0000    0    12.011   -8.105843    1.391153   -3.429191
   4 C     6.0000    0    12.011   -5.887343    0.379268    0.585646
   5 C     6.0000    0    12.011   -4.775903   -1.893069   -0.161238
   6 C     6.0000    0    12.011   -2.494344   -2.700268    0.805869
   7 C     6.0000    0    12.011   -1.210370   -1.230052    2.582746
   8 C     6.0000    0    12.011   -2.317211    1.044565    3.342062
   9 C     6.0000    0    12.011   -4.602400    1.830525    2.365920
  10 C     6.0000    0    12.011    1.244871   -1.910222    3.689303
  11 O     8.0000    0    15.999    2.271827   -0.590168    5.275409
  12 C     6.0000    0    12.011    2.515760   -4.321512    2.775352
  13 C     6.0000    0    12.011    3.464423   -4.040091    0.071725
  14 O     8.0000    0    15.999    2.434885   -5.196798   -1.637172
  15 C     6.0000    0    12.011    5.598408   -2.333832   -0.388427
  16 C     6.0000    0    12.011    6.351697   -1.955432   -2.903286
  17 C     6.0000    0    12.011    8.303171   -0.356023   -3.492997
  18 C     6.0000    0    12.011    9.592000    0.939510   -1.575916
  19 O     8.0000    0    15.999   11.474283    2.477874   -2.344338
  20 C     6.0000    0    12.011   12.843326    3.884128   -0.524356
  21 C     6.0000    0    12.011    8.867478    0.565976    0.931680
  22 C     6.0000    0    12.011    6.903410   -1.050121    1.511331
  23 H     1.0000    0     1.008   -9.629933    3.635977    2.498254
  24 H     1.0000    0     1.008   -8.009874    5.217263    0.026428
  25 H     1.0000    0     1.008  -11.136001    4.175783   -0.415650
  26 H     1.0000    0     1.008   -9.890390   -2.674662   -0.712815
  27 H     1.0000    0     1.008  -12.218034   -0.294572   -0.681815
  28 H     1.0000    0     1.008  -10.572309   -1.058658    2.119383
  29 H     1.0000    0     1.008   -6.646889    2.764705   -3.890429
  30 H     1.0000    0     1.008   -7.587639   -0.406535   -4.273574
  31 H     1.0000    0     1.008   -9.875889    2.011314   -4.269248
  32 H     1.0000    0     1.008   -5.707380   -3.076370   -1.535743
  33 H     1.0000    0     1.008   -1.718564   -4.463137    0.143041
  34 H     1.0000    0     1.008   -1.329857    2.186861    4.716412
  35 H     1.0000    0     1.008   -5.369632    3.601393    3.012601
  36 H     1.0000    0     1.008    4.098525   -4.733592    4.028159
  37 H     1.0000    0     1.008    1.170078   -5.880525    2.823717
  38 H     1.0000    0     1.008    5.343329   -2.951096   -4.371332
  39 H     1.0000    0     1.008    8.881589   -0.054563   -5.423551
  40 H     1.0000    0     1.008   14.205403    4.984539   -1.602602
  41 H     1.0000    0     1.008   11.600021    5.155700    0.526226
  42 H     1.0000    0     1.008   13.841088    2.637651    0.786070
  43 H     1.0000    0     1.008    9.824752    1.530530    2.448995
  44 H     1.0000    0     1.008    6.388979   -1.273271    3.469283

--------------------------------
INTERNAL COORDINATES (ANGSTROEM)
--------------------------------
 C      0   0   0     0.000000000000     0.00000000     0.00000000
 C      1   0   0     1.531601574175     0.00000000     0.00000000
 C      2   1   0     1.536354026375   108.25717069     0.00000000
 C      2   1   3     1.536480221533   108.26162994   119.01488772
 C      2   1   3     1.518939406097   112.69504321   239.50811284
 C      5   2   1     1.395728848258   119.60497837   180.37190722
 C      6   5   2     1.379151803269   122.04963100   179.94723523
 C      7   6   5     1.396808517389   120.20666545   359.72691838
 C      8   7   6     1.397622842350   117.99371349     0.40656180
 C      9   8   7     1.379182375222   121.29794154   359.72257828
 C      8   7   6     1.469866332975   124.17717938   181.01082664
 O     11   8   7     1.219740622945   121.85157908   181.52126289
 C     11   8   7     1.521306958310   118.00167811     2.25992728
 C     13  11   8     1.523512189761   111.23682894    70.34247132
 O     14  13  11     1.220352567325   119.98322492   249.86596181
 C     14  13  11     1.466208083934   118.03021705    69.10336258
 C     16  14  13     1.403581836123   117.64916944   184.16307473
 C     17  16  14     1.371183582828   121.18056531   178.90062162
 C     18  17  16     1.401539561974   120.24422206     0.03391059
 O     19  18  17     1.349144937753   115.86540363   180.31034533
 C     20  19  18     1.416393381530   119.32104771   179.04215260
 C     19  18  17     1.395313014949   119.03633880     0.32246947
 C     22  19  18     1.380465632611   120.39463518   359.77337833
 H      1   2   3     1.087362832429   111.12483149    59.38497518
 H      1   2   3     1.087374343536   111.11300932   181.31677354
 H      1   2   3     1.087775699507   109.29755008   300.35691577
 H      3   2   1     1.086200643558   111.46601041   175.95249169
 H      3   2   1     1.087502877213   109.88222526    55.90439975
 H      3   2   1     1.088053950491   110.23718482   296.31379590
 H      4   2   1     1.088091138405   110.27086048    64.18769534
 H      4   2   1     1.086193262084   111.49815783   184.50669643
 H      4   2   1     1.087501692809   109.90530717   304.57715983
 H      6   5   2     1.078939758938   119.89338815   359.92518203
 H      7   6   5     1.077871131877   118.73266680   180.63538958
 H      9   8   7     1.080422049630   118.21002116   179.99112097
 H     10   9   8     1.077081968033   118.28663454   180.14047184
 H     13  11   8     1.090217658848   108.30449449   190.99912059
 H     13  11   8     1.090120824797   109.78677205   310.69189248
 H     17  16  14     1.079743559833   118.17768928   359.28791930
 H     18  17  16     1.078338547722   121.37929494   180.27126810
 H     21  20  19     1.088198755988   105.27209756   181.09300898
 H     21  20  19     1.093032609623   111.18643812   299.73515483
 H     21  20  19     1.093035947937   111.18650035    62.47554627
 H     22  19  18     1.077883895468   120.81065727   179.82792874
 H     23  22  19     1.077757887903   118.14184961   180.60183870

---------------------------
INTERNAL COORDINATES (A.U.)
---------------------------
 C      0   0   0     0.000000000000     0.00000000     0.00000000
 C      1   0   0     2.894307521473     0.00000000     0.00000000
 C      2   1   0     2.903288354597   108.25717069     0.00000000
 C      2   1   3     2.903526828884   108.26162994   119.01488772
 C      2   1   3     2.870379491544   112.69504321   239.50811284
 C      5   2   1     2.637545280421   119.60497837   180.37190722
 C      6   5   2     2.606219205281   122.04963100   179.94723523
 C      7   6   5     2.639585559393   120.20666545   359.72691838
 C      8   7   6     2.641124410555   117.99371349     0.40656180
 C      9   8   7     2.606276977900   121.29794154   359.72257828
 C      8   7   6     2.777644822795   124.17717938   181.01082664
 O     11   8   7     2.304975731785   121.85157908   181.52126289
 C     11   8   7     2.874853516834   118.00167811     2.25992728
 C     13  11   8     2.879020800338   111.23682894    70.34247132
 O     14  13  11     2.306132139072   119.98322492   249.86596181
 C     14  13  11     2.770731733976   118.03021705    69.10336258
 C     16  14  13     2.652385276818   117.64916944   184.16307473
 C     17  16  14     2.591161450873   121.18056531   178.90062162
 C     18  17  16     2.648525937986   120.24422206     0.03391059
 O     19  18  17     2.549514447319   115.86540363   180.31034533
 C     20  19  18     2.676595588991   119.32104771   179.04215260
 C     19  18  17     2.636759469350   119.03633880     0.32246947
 C     22  19  18     2.608701982925   120.39463518   359.77337833
 H      1   2   3     2.054817961497   111.12483149    59.38497518
 H      1   2   3     2.054839714336   111.11300932   181.31677354
 H      1   2   3     2.055598167203   109.29755008   300.35691577
 H      3   2   1     2.052621742813   111.46601041   175.95249169
 H      3   2   1     2.055082607784   109.88222526    55.90439975
 H      3   2   1     2.056123985358   110.23718482   296.31379590
 H      4   2   1     2.056194260333   110.27086048    64.18769534
 H      4   2   1     2.052607793850   111.49815783   184.50669643
 H      4   2   1     2.055080369585   109.90530717   304.57715983
 H      6   5   2     2.038900659392   119.89338815   359.92518203
 H      7   6   5     2.036881246908   118.73266680   180.63538958
 H      9   8   7     2.041701782851   118.21002116   179.99112097
 H     10   9   8     2.035389943368   118.28663454   180.14047184
 H     13  11   8     2.060212801587   108.30449449   190.99912059
 H     13  11   8     2.060029811752   109.78677205   310.69189248
 H     17  16  14     2.040419622949   118.17768928   359.28791930
 H     18  17  16     2.037764534845   121.37929494   180.27126810
 H     21  20  19     2.056397628092   105.27209756   181.09300898
 H     21  20  19     2.065532287633   111.18643812   299.73515483
 H     21  20  19     2.065538596132   111.18650035    62.47554627
 H     22  19  18     2.036905366599   120.81065727   179.82792874
 H     23  22  19     2.036667246810   118.14184961   180.60183870

---------------------
BASIS SET INFORMATION
---------------------
There are 3 groups of distinct atoms

 Group   1 Type C   : 7s4p1d contracted to 3s2p1d pattern {511/31/1}
 Group   2 Type O   : 7s4p1d contracted to 3s2p1d pattern {511/31/1}
 Group   3 Type H   : 4s1p contracted to 2s1p pattern {31/1}

Atom   0C    basis set group =>   1
Atom   1C    basis set group =>   1
Atom   2C    basis set group =>   1
Atom   3C    basis set group =>   1
Atom   4C    basis set group =>   1
Atom   5C    basis set group =>   1
Atom   6C    basis set group =>   1
Atom   7C    basis set group =>   1
Atom   8C    basis set group =>   1
Atom   9C    basis set group =>   1
Atom  10C    basis set group =>   1
Atom  11O    basis set group =>   2
Atom  12C    basis set group =>   1
Atom  13C    basis set group =>   1
Atom  14O    basis set group =>   2
Atom  15C    basis set group =>   1
Atom  16C    basis set group =>   1
Atom  17C    basis set group =>   1
Atom  18C    basis set group =>   1
Atom  19O    basis set group =>   2
Atom  20C    basis set group =>   1
Atom  21C    basis set group =>   1
Atom  22C    basis set group =>   1
Atom  23H    basis set group =>   3
Atom  24H    basis set group =>   3
Atom  25H    basis set group =>   3
Atom  26H    basis set group =>   3
Atom  27H    basis set group =>   3
Atom  28H    basis set group =>   3
Atom  29H    basis set group =>   3
Atom  30H    basis set group =>   3
Atom  31H    basis set group =>   3
Atom  32H    basis set group =>   3
Atom  33H    basis set group =>   3
Atom  34H    basis set group =>   3
Atom  35H    basis set group =>   3
Atom  36H    basis set group =>   3
Atom  37H    basis set group =>   3
Atom  38H    basis set group =>   3
Atom  39H    basis set group =>   3
Atom  40H    basis set group =>   3
Atom  41H    basis set group =>   3
Atom  42H    basis set group =>   3
Atom  43H    basis set group =>   3
Atom  44H    basis set group =>   3
---------------------------------
AUXILIARY/J BASIS SET INFORMATION
---------------------------------
There are 3 groups of distinct atoms

 Group   1 Type C   : 12s5p4d2f1g contracted to 6s4p3d1f1g pattern {711111/2111/211/2/1}
 Group   2 Type O   : 12s5p4d2f1g contracted to 6s4p3d1f1g pattern {711111/2111/211/2/1}
 Group   3 Type H   : 5s2p1d contracted to 3s1p1d pattern {311/2/1}

Atom   0C    basis set group =>   1
Atom   1C    basis set group =>   1
Atom   2C    basis set group =>   1
Atom   3C    basis set group =>   1
Atom   4C    basis set group =>   1
Atom   5C    basis set group =>   1
Atom   6C    basis set group =>   1
Atom   7C    basis set group =>   1
Atom   8C    basis set group =>   1
Atom   9C    basis set group =>   1
Atom  10C    basis set group =>   1
Atom  11O    basis set group =>   2
Atom  12C    basis set group =>   1
Atom  13C    basis set group =>   1
Atom  14O    basis set group =>   2
Atom  15C    basis set group =>   1
Atom  16C    basis set group =>   1
Atom  17C    basis set group =>   1
Atom  18C    basis set group =>   1
Atom  19O    basis set group =>   2
Atom  20C    basis set group =>   1
Atom  21C    basis set group =>   1
Atom  22C    basis set group =>   1
Atom  23H    basis set group =>   3
Atom  24H    basis set group =>   3
Atom  25H    basis set group =>   3
Atom  26H    basis set group =>   3
Atom  27H    basis set group =>   3
Atom  28H    basis set group =>   3
Atom  29H    basis set group =>   3
Atom  30H    basis set group =>   3
Atom  31H    basis set group =>   3
Atom  32H    basis set group =>   3
Atom  33H    basis set group =>   3
Atom  34H    basis set group =>   3
Atom  35H    basis set group =>   3
Atom  36H    basis set group =>   3
Atom  37H    basis set group =>   3
Atom  38H    basis set group =>   3
Atom  39H    basis set group =>   3
Atom  40H    basis set group =>   3
Atom  41H    basis set group =>   3
Atom  42H    basis set group =>   3
Atom  43H    basis set group =>   3
Atom  44H    basis set group =>   3


           ************************************************************
           *        Program running with 4 parallel MPI-processes     *
           *              working on a common directory               *
           ************************************************************
------------------------------------------------------------------------------
                             ORCA STARTUP CALCULATIONS
                           -- RI-GTO INTEGRALS CHOSEN --
------------------------------------------------------------------------------
------------------------------------------------------------------------------
                   ___                                                        
                  /   \      - P O W E R E D   B Y -                         
                 /     \                                                     
                 |  |  |   _    _      __       _____    __    __             
                 |  |  |  | |  | |    /  \     |  _  \  |  |  /  |          
                  \  \/   | |  | |   /    \    | | | |  |  | /  /          
                 / \  \   | |__| |  /  /\  \   | |_| |  |  |/  /          
                |  |  |   |  __  | /  /__\  \  |    /   |      \           
                |  |  |   | |  | | |   __   |  |    \   |  |\   \          
                \     /   | |  | | |  |  |  |  | |\  \  |  | \   \       
                 \___/    |_|  |_| |__|  |__|  |_| \__\ |__|  \__/        
                                                                              
                      - O R C A' S   B I G   F R I E N D -                    
                                      &                                       
                       - I N T E G R A L  F E E D E R -                       
                                                                              
 v1 FN, 2020, v2 2021, v3 2022-2024                                           
------------------------------------------------------------------------------


----------------------
SHARK INTEGRAL PACKAGE
----------------------

Number of atoms                             ...     45
Number of basis functions                   ...    432
Number of shells                            ...    204
Maximum angular momentum                    ...      2
Integral batch strategy                     ... SHARK/LIBINT Hybrid
RI-J (if used) integral strategy            ... SPLIT-RIJ (Revised 2003 algorithm where possible)
Printlevel                                  ...      1
Contraction scheme used                     ... SEGMENTED contraction
Prescreening option                         ... SCHWARTZ
   Thresh                                   ... 2.500e-11
   Tcut                                     ... 2.500e-12
   Tpresel                                  ... 2.500e-12 
Coulomb Range Separation                    ... NOT USED
Exchange Range Separation                   ... NOT USED
Multipole approximations                    ... NOT USED
Finite Nucleus Model                        ... NOT USED
CABS basis                                  ... NOT available
Auxiliary Coulomb fitting basis             ... AVAILABLE
   # of basis functions in Aux-J            ...   1369
   # of shells in Aux-J                     ...    455
   Maximum angular momentum in Aux-J        ...      4
Auxiliary J/K fitting basis                 ... NOT available
Auxiliary Correlation fitting basis         ... NOT available
Auxiliary 'external' fitting basis          ... NOT available

Checking pre-screening integrals            ... done (  0.0 sec) Dimension = 204
   => SHARK Basis and OBASIS are compatible. Storing Pre-screening
Shell pair information
Shell pair cut-off parameter TPreSel        ...   2.5e-12
Total number of shell pairs                 ...     20910
Shell pairs after pre-screening             ...     13586
Total number of primitive shell pairs       ...     75056
Primitive shell pairs kept                  ...     31343
          la=0 lb=0:   4313 shell pairs
          la=1 lb=0:   5094 shell pairs
          la=1 lb=1:   1545 shell pairs
          la=2 lb=0:   1566 shell pairs
          la=2 lb=1:    923 shell pairs
          la=2 lb=2:    145 shell pairs

Checking whether 4 symmetric matrices of dimension 432 fit in memory
:Max Core in MB      =   2500.00
 MB in use           =     16.59
 MB left             =   2483.41
 MB needed           =      2.85
 Data fit in memory  = YES
Calculating RI/J V-Matrix + Cholesky decomp.... done (  0.1 sec)
Calculating Nuclear repulsion               ... done (  0.0 sec) ENN=   1816.148999229440 Eh

Diagonalization of the overlap matrix:
Smallest eigenvalue                        ... 2.415e-04
Time for diagonalization                   ...    0.027 sec
Threshold for overlap eigenvalues          ... 1.000e-07
Number of eigenvalues below threshold      ... 0
Time for construction of square roots      ...    0.017 sec
Total time needed                          ...    0.047 sec

-------------------
DFT GRID GENERATION
-------------------

General Integration Accuracy     IntAcc      ... 4.388
Radial Grid Type                 RadialGrid  ... OptM3 with GC (2021)
Angular Grid (max. ang.)         AngularGrid ... 4 (Lebedev-302)
Angular grid pruning method      GridPruning ... 4 (adaptive)
Weight generation scheme         WeightScheme... mBecke (2022)
Basis function cutoff            BFCut       ... 1.0000e-11
Integration weight cutoff        WCut        ... 1.0000e-14
Partially contracted basis set               ... off
Rotationally invariant grid construction     ... off
Angular grids for H and He will be reduced by one unit

Total number of grid points                  ...   207356
Total number of batches                      ...     3262
Average number of points per batch           ...       63
Average number of grid points per atom       ...     4608

--------------------
COSX GRID GENERATION
--------------------

GRIDX 1
-------
General Integration Accuracy     IntAcc      ... 3.816
Radial Grid Type                 RadialGrid  ... OptM3 with GC (2021)
Angular Grid (max. ang.)         AngularGrid ... 1 (Lebedev-50)
Angular grid pruning method      GridPruning ... 4 (adaptive)
Weight generation scheme         WeightScheme... mBecke (2022)
Basis function cutoff            BFCut       ... 1.0000e-11
Integration weight cutoff        WCut        ... 1.0000e-14
Partially contracted basis set               ... on
Rotationally invariant grid construction     ... off
Angular grids for H and He will be reduced by one unit

Total number of grid points                  ...    26315
Total number of batches                      ...      231
Average number of points per batch           ...      113
Average number of grid points per atom       ...      585
UseSFitting                                  ... on

GRIDX 2
-------
General Integration Accuracy     IntAcc      ... 4.020
Radial Grid Type                 RadialGrid  ... OptM3 with GC (2021)
Angular Grid (max. ang.)         AngularGrid ... 2 (Lebedev-110)
Angular grid pruning method      GridPruning ... 4 (adaptive)
Weight generation scheme         WeightScheme... mBecke (2022)
Basis function cutoff            BFCut       ... 1.0000e-11
Integration weight cutoff        WCut        ... 1.0000e-14
Partially contracted basis set               ... on
Rotationally invariant grid construction     ... off
Angular grids for H and He will be reduced by one unit

Total number of grid points                  ...    56460
Total number of batches                      ...      468
Average number of points per batch           ...      120
Average number of grid points per atom       ...     1255
UseSFitting                                  ... on

GRIDX 3
-------
General Integration Accuracy     IntAcc      ... 4.338
Radial Grid Type                 RadialGrid  ... OptM3 with GC (2021)
Angular Grid (max. ang.)         AngularGrid ... 3 (Lebedev-194)
Angular grid pruning method      GridPruning ... 4 (adaptive)
Weight generation scheme         WeightScheme... mBecke (2022)
Basis function cutoff            BFCut       ... 1.0000e-11
Integration weight cutoff        WCut        ... 1.0000e-14
Partially contracted basis set               ... on
Rotationally invariant grid construction     ... off
Angular grids for H and He will be reduced by one unit

Total number of grid points                  ...   123347
Total number of batches                      ...      989
Average number of points per batch           ...      124
Average number of grid points per atom       ...     2741
UseSFitting                                  ... on
Grids setup in   4.2 sec
Initializing property integral containers    ... done (  0.1 sec)

SHARK setup successfully completed in   4.7 seconds

Maximum memory used throughout the entire STARTUP-calculation: 59.4 MB


           ************************************************************
           *        Program running with 4 parallel MPI-processes     *
           *              working on a common directory               *
           ************************************************************
-------------------------------------------------------------------------------
                                 ORCA GUESS
                   Start orbitals & Density for SCF / CASSCF
-------------------------------------------------------------------------------

------------
SCF SETTINGS
------------
Hamiltonian:
 Density Functional     Method          .... DFT(GTOs)
 Exchange Functional    Exchange        .... B88
   X-Alpha parameter    XAlpha          ....  0.666667
   Becke's b parameter  XBeta           ....  0.004200
 Correlation Functional Correlation     .... LYP
 LDA part of GGA corr.  LDAOpt          .... VWN-5
 Gradients option       PostSCFGGA      .... off
 Hybrid DFT is turned on
   Fraction HF Exchange ScalHFX         ....  0.200000
   Scaling of DF-GGA-X  ScalDFX         ....  0.720000
   Scaling of DF-GGA-C  ScalDFC         ....  0.810000
   Scaling of DF-LDA-C  ScalLDAC        ....  1.000000
   Perturbative correction              ....  0.000000
   NL short-range parameter             ....  4.800000
 RI-approximation to the Coulomb term is turned on
   Number of AuxJ basis functions       .... 1369
   RIJ-COSX (HFX calculated with COS-X)).... on


General Settings:
 Integral files         IntName         .... td
 Hartree-Fock type      HFTyp           .... RHF
 Total Charge           Charge          ....    0
 Multiplicity           Mult            ....    1
 Number of Electrons    NEL             ....  166
 Basis Dimension        Dim             ....  432
 Nuclear Repulsion      ENuc            ....   1816.1489992294 Eh

Convergence Acceleration:
 AO-DIIS                CNVDIIS         .... on
   Start iteration      DIISMaxIt       ....    12
   Startup error        DIISStart       ....  0.200000
   # of expansion vecs  DIISMaxEq       ....     5
   Bias factor          DIISBfac        ....   1.050
   Max. coefficient     DIISMaxC        ....  10.000
 MO-DIIS                CNVKDIIS        .... off
 Trust-Rad. Augm. Hess. CNVTRAH         .... auto
   Auto Start mean grad. ratio tolernc. ....  1.125000
   Auto Start start iteration           ....    50
   Auto Start num. interpolation iter.  ....    10
   Max. Number of Micro iterations      ....    24
   Max. Number of Macro iterations      .... Maxiter - #DIIS iter
   Number of Davidson start vectors     ....     2
   Converg. threshold    (grad. norm)   ....   1.000e-05
   Grad. Scal. Fac. for Micro threshold ....   0.100
   Minimum threshold for Micro iter.    ....   1.000e-02
   NR start threshold (gradient norm)   ....   1.000e-04
   Initial trust radius                 ....   0.400
   Minimum AH scaling param. (alpha)    ....   1.000
   Maximum AH scaling param. (alpha)    .... 1000.000
   Quad. conv. algorithm                .... NR
   White noise on init. David. guess    .... on
   Maximum white noise                  ....   0.010
   Pseudo random numbers                .... off
   Inactive MOs                         .... canonical
   Orbital update algorithm             .... Taylor
   Preconditioner                       .... Diag
   Full preconditioner red. dimension   ....   250
 SOSCF                 CNVSOSCF           .... on
   Start iteration     SOSCFMaxIt         ....   150
   Startup grad/error  SOSCFStart         ....  0.003300
   Hessian update      SOSCFHessUp        .... L-BFGS
   Autom. constraints  SOSCFAutoConstrain .... off
 Level Shifting         CNVShift        .... on
   Level shift para.    LevelShift      ....    0.2500
   Turn off err/grad.   ShiftErr        ....    0.0010
 Zerner damping         CNVZerner       .... off
 Static damping         CNVDamp         .... on
   Fraction old density DampFac         ....    0.7000
   Max. Damping (<1)    DampMax         ....    0.9800
   Min. Damping (>=0)   DampMin         ....    0.0000
   Turn off err/grad.   DampErr         ....    0.1000

SCF Procedure:
 Maximum # iterations   MaxIter         ....   300
 SCF integral mode      SCFMode         .... Direct
   Integral package                     .... SHARK and LIBINT hybrid scheme
 Reset frequency        DirectResetFreq ....    20
 Integral Threshold     Thresh          ....  2.500e-11 Eh
 Primitive CutOff       TCut            ....  2.500e-12 Eh

Convergence Tolerance:
 Convergence Check Mode ConvCheckMode   .... Total+1el-Energy
 Convergence forced     ConvForced      .... 1
 Energy Change          TolE            ....  1.000e-08 Eh
 1-El. energy change                    ....  1.000e-05 Eh
 Orbital Gradient       TolG            ....  1.000e-05
 Orbital Rotation angle TolX            ....  1.000e-05
 DIIS Error             TolErr          ....  5.000e-07

------------------------------
INITIAL GUESS: MODEL POTENTIAL
------------------------------
Loading Hartree-Fock densities                     ... done
Calculating cut-offs                               ... done
Initializing the effective Hamiltonian             ... done
Setting up the integral package (SHARK)            ... done
Starting the Coulomb interaction                   ... done (   0.7 sec)
Making the grid                                    ... done (   0.6 sec)
Mapping shells                                     ... done
Starting the XC term evaluation                    ... done (   0.5 sec)
  promolecular density results
     # of electrons  =    165.992290691
     EX              =   -134.035724193
     EC              =     -5.603386195
     EX+EC           =   -139.639110388
Transforming the Hamiltonian                       ... done (   0.0 sec)
Diagonalizing the Hamiltonian                      ... done (   0.0 sec)
Back transforming the eigenvectors                 ... done (   0.0 sec)
Now organizing SCF variables                       ... done
                      ------------------
                      INITIAL GUESS DONE (   1.9 sec)
                      ------------------
             **** ENERGY FILE WAS UPDATED (td.en.tmp) ****
Finished Guess after   2.1 sec
Maximum memory used throughout the entire GUESS-calculation: 23.1 MB


           ************************************************************
           *        Program running with 4 parallel MPI-processes     *
           *              working on a common directory               *
           ************************************************************

-------------------------------------------------------------------------------------------
                                      ORCA LEAN-SCF
                              memory conserving SCF solver
-------------------------------------------------------------------------------------------

--------------------
CPCM SOLVATION MODEL
--------------------
CPCM parameters:
  Epsilon                                         ...      25.4510
  Refrac                                          ...       1.3611
  Rsolv                                           ...       1.3000
  Surface type                                    ... GAUSSIAN VDW
  Discretization scheme                           ... Constant charge density
    Threshold for H atoms                         ...       5.0000 (charges/Ang^2)
    Threshold for non-H atoms                     ...       5.0000 (charges/Ang^2)
  Epsilon function type                           ...         CPCM
Solvent:                                          ... ETHANOL
Radii:
  Scheme                                          ... Element-dependent radii
  Radius for C  used is    3.8550 Bohr (=   2.0400 Ang.)
  Radius for O  used is    3.4469 Bohr (=   1.8240 Ang.)
  Radius for H  used is    2.4944 Bohr (=   1.3200 Ang.)
Calculating surface                               ...        done! (  0.0s)
Cavity surface points                             ...         3723
Cavity Volume                                     ...    2612.6376
Cavity Surface-area                               ...    1323.2949
Calculating surface distance matrix               ...        done! (  0.1s)
Performing Cholesky decomposition & store         ...        done! (  0.7s)
Overall time for CPCM initialization              ...                 0.8s

----------------------------------------D-I-I-S--------------------------------------------
Iteration    Energy (Eh)           Delta-E    RMSDP     MaxDP     DIISErr   Damp  Time(sec)
-------------------------------------------------------------------------------------------
               ***  Starting incremental Fock matrix formation  ***
    1    -999.1682603266863225     0.00e+00  4.95e-03  8.30e-02  2.41e-01  0.700  13.4
    2    -999.4244513587059373    -2.56e-01  3.39e-03  5.24e-02  9.42e-02  0.700   7.5
                               ***Turning on AO-DIIS***
    3    -999.5287977388020408    -1.04e-01  1.50e-03  2.15e-02  3.54e-02  0.700   6.9
    4    -999.5916292148563116    -6.28e-02  2.74e-03  3.37e-02  1.73e-02  0.000   6.7
    5    -999.7275091328820054    -1.36e-01  4.30e-04  8.52e-03  6.67e-03  0.000   7.1
                              *** Initializing SOSCF ***
---------------------------------------S-O-S-C-F--------------------------------------
Iteration    Energy (Eh)           Delta-E    RMSDP     MaxDP     MaxGrad    Time(sec)
--------------------------------------------------------------------------------------
    6    -999.7283811055663136    -8.72e-04  1.44e-04  3.66e-03  1.39e-03     6.4
               *** Restarting incremental Fock matrix formation ***
    7    -999.7284492984440476    -6.82e-05  9.82e-05  3.05e-03  2.21e-04    13.5
    8    -999.7284514381994995    -2.14e-06  3.20e-05  6.66e-04  3.16e-04     9.2
    9    -999.7284559403142339    -4.50e-06  2.45e-05  6.96e-04  1.23e-04     7.7
   10    -999.7284558348414976     1.05e-07  1.06e-05  2.39e-04  8.07e-05     7.8
   11    -999.7284564698884424    -6.35e-07  4.47e-06  9.82e-05  1.32e-05     6.8
   12    -999.7284564482656606     2.16e-08  2.78e-06  6.21e-05  2.04e-05     6.0
   13    -999.7284564761639558    -2.79e-08  8.59e-07  2.17e-05  2.22e-06     5.6
                  *** Gradient check signals convergence ***

               *****************************************************
               *                     SUCCESS                       *
               *           SCF CONVERGED AFTER  13 CYCLES          *
               *****************************************************

Recomputing exchange energy using gridx3       ... done (   20.482 sec)
Old exchange energy                            :    -27.236828438 Eh
New exchange energy                            :    -27.236838203 Eh
Exchange energy change after final integration :     -0.000009766 Eh
Total energy after final integration           :   -999.728466241 Eh
             **** ENERGY FILE WAS UPDATED (td.en.tmp) ****

----------------
TOTAL SCF ENERGY
----------------

Total Energy       :       -999.72846624113947 Eh          -27203.99459 eV

Components:
Nuclear Repulsion  :       1816.14899922943960 Eh           49419.92673 eV
Electronic Energy  :      -2815.86033883561640 Eh          -76623.45528 eV
One Electron Energy:      -4965.66341089804973 Eh         -135122.57091 eV
Two Electron Energy:       2149.80307206243333 Eh           58499.11563 eV
CPCM Dielectric    :         -0.01711686941829 Eh              -0.46577 eV

Virial components:
Potential Energy   :      -1990.16502995841984 Eh          -54155.14366 eV
Kinetic Energy     :        990.43656371728025 Eh           26951.14907 eV
Virial Ratio       :          2.00938162307840

DFT components:
N(Alpha)           :       82.999948897528 electrons
N(Beta)            :       82.999948897528 electrons
N(Total)           :      165.999897795056 electrons
E(X)               :     -108.145105659484 Eh       
E(C)               :       -6.602139838828 Eh       
E(XC)              :     -114.747245498312 Eh       

CPCM Solvation Model Properties:
Surface-charge          :         -0.03032707965798
Corrected charge        :         -0.00000000000000
Outlying charge corr.   :          0.00004470083686 Eh               0.00122 eV
Free-energy (cav+disp)  :  This term is not implemented in the current solvation scheme

---------------
SCF CONVERGENCE
---------------

  Last Energy change         ...    2.7898e-08  Tolerance :   1.0000e-08
  Last MAX-Density change    ...    2.1702e-05  Tolerance :   1.0000e-07
  Last RMS-Density change    ...    8.5935e-07  Tolerance :   5.0000e-09
  Last DIIS Error            ...    1.3905e-03  Tolerance :   5.0000e-07
  Last Orbital Gradient      ...    2.2233e-06  Tolerance :   1.0000e-05
  Last Orbital Rotation      ...    6.9547e-06  Tolerance :   1.0000e-05


----------------
ORBITAL ENERGIES
----------------

  NO   OCC          E(Eh)            E(eV) 
   0   2.0000     -19.171908      -521.6941 
   1   2.0000     -19.128216      -520.5052 
   2   2.0000     -19.125211      -520.4235 
   3   2.0000     -10.279946      -279.7316 
   4   2.0000     -10.278007      -279.6788 
   5   2.0000     -10.258771      -279.1554 
   6   2.0000     -10.234345      -278.4907 
   7   2.0000     -10.198344      -277.5110 
   8   2.0000     -10.197330      -277.4834 
   9   2.0000     -10.194531      -277.4073 
  10   2.0000     -10.194435      -277.4047 
  11   2.0000     -10.192670      -277.3567 
  12   2.0000     -10.191843      -277.3342 
  13   2.0000     -10.190594      -277.3002 
  14   2.0000     -10.190401      -277.2949 
  15   2.0000     -10.189770      -277.2777 
  16   2.0000     -10.189090      -277.2592 
  17   2.0000     -10.187387      -277.2129 
  18   2.0000     -10.184510      -277.1346 
  19   2.0000     -10.184425      -277.1323 
  20   2.0000     -10.167668      -276.6763 
  21   2.0000     -10.167574      -276.6737 
  22   2.0000     -10.165717      -276.6232 
  23   2.0000      -1.066789       -29.0288 
  24   2.0000      -1.037445       -28.2303 
  25   2.0000      -1.032060       -28.0838 
  26   2.0000      -0.865696       -23.5568 
  27   2.0000      -0.860749       -23.4222 
  28   2.0000      -0.816125       -22.2079 
  29   2.0000      -0.784079       -21.3359 
  30   2.0000      -0.760517       -20.6947 
  31   2.0000      -0.751988       -20.4626 
  32   2.0000      -0.745615       -20.2892 
  33   2.0000      -0.734298       -19.9813 
  34   2.0000      -0.698697       -19.0125 
  35   2.0000      -0.676523       -18.4091 
  36   2.0000      -0.676110       -18.3979 
  37   2.0000      -0.637914       -17.3585 
  38   2.0000      -0.623348       -16.9622 
  39   2.0000      -0.610161       -16.6033 
  40   2.0000      -0.599950       -16.3255 
  41   2.0000      -0.565599       -15.3907 
  42   2.0000      -0.551664       -15.0115 
  43   2.0000      -0.548818       -14.9341 
  44   2.0000      -0.536482       -14.5984 
  45   2.0000      -0.509173       -13.8553 
  46   2.0000      -0.496745       -13.5171 
  47   2.0000      -0.480221       -13.0675 
  48   2.0000      -0.478265       -13.0143 
  49   2.0000      -0.473109       -12.8740 
  50   2.0000      -0.460555       -12.5323 
  51   2.0000      -0.452833       -12.3222 
  52   2.0000      -0.451544       -12.2871 
  53   2.0000      -0.442472       -12.0403 
  54   2.0000      -0.438408       -11.9297 
  55   2.0000      -0.437601       -11.9077 
  56   2.0000      -0.432648       -11.7730 
  57   2.0000      -0.428043       -11.6476 
  58   2.0000      -0.418675       -11.3927 
  59   2.0000      -0.416029       -11.3207 
  60   2.0000      -0.408658       -11.1201 
  61   2.0000      -0.403802       -10.9880 
  62   2.0000      -0.399333       -10.8664 
  63   2.0000      -0.394527       -10.7356 
  64   2.0000      -0.389279       -10.5928 
  65   2.0000      -0.379010       -10.3134 
  66   2.0000      -0.374367       -10.1870 
  67   2.0000      -0.370043       -10.0694 
  68   2.0000      -0.363347        -9.8872 
  69   2.0000      -0.361748        -9.8437 
  70   2.0000      -0.357216        -9.7203 
  71   2.0000      -0.351260        -9.5583 
  72   2.0000      -0.331310        -9.0154 
  73   2.0000      -0.329469        -8.9653 
  74   2.0000      -0.327677        -8.9165 
  75   2.0000      -0.325888        -8.8679 
  76   2.0000      -0.314794        -8.5660 
  77   2.0000      -0.269814        -7.3420 
  78   2.0000      -0.267782        -7.2867 
  79   2.0000      -0.263166        -7.1611 
  80   2.0000      -0.253965        -6.9107 
  81   2.0000      -0.252563        -6.8726 
  82   2.0000      -0.235625        -6.4117 
  83   0.0000      -0.073700        -2.0055 
  84   0.0000      -0.048695        -1.3251 
  85   0.0000      -0.013084        -0.3560 
  86   0.0000      -0.010164        -0.2766 
  87   0.0000       0.034722         0.9448 
  88   0.0000       0.046795         1.2734 
  89   0.0000       0.062232         1.6934 
  90   0.0000       0.077149         2.0993 
  91   0.0000       0.088088         2.3970 
  92   0.0000       0.096030         2.6131 
  93   0.0000       0.101435         2.7602 
*Only the first 10 virtual orbitals were printed.

                    ********************************
                    * MULLIKEN POPULATION ANALYSIS *
                    ********************************

-----------------------
MULLIKEN ATOMIC CHARGES
-----------------------
   0 C :    0.111971
   1 C :   -0.269740
   2 C :    0.090462
   3 C :    0.090177
   4 C :    0.116588
   5 C :   -0.047203
   6 C :    0.000599
   7 C :    0.027096
   8 C :   -0.006730
   9 C :   -0.029110
  10 C :    0.018840
  11 O :   -0.235350
  12 C :    0.186424
  13 C :    0.014044
  14 O :   -0.241515
  15 C :    0.021528
  16 C :   -0.005932
  17 C :   -0.021766
  18 C :    0.251665
  19 O :   -0.316917
  20 C :    0.180421
  21 C :   -0.087964
  22 C :    0.004428
  23 H :    0.008538
  24 H :    0.008111
  25 H :    0.004620
  26 H :    0.006804
  27 H :    0.006312
  28 H :    0.006357
  29 H :    0.006480
  30 H :    0.007024
  31 H :    0.006165
  32 H :   -0.007969
  33 H :   -0.015455
  34 H :   -0.020532
  35 H :   -0.016318
  36 H :    0.034304
  37 H :    0.032825
  38 H :   -0.013694
  39 H :   -0.013243
  40 H :    0.043976
  41 H :    0.039337
  42 H :    0.039411
  43 H :   -0.007432
  44 H :   -0.007635
Sum of atomic charges:   -0.0000000

--------------------------------
MULLIKEN REDUCED ORBITAL CHARGES
--------------------------------
  0 C s       :     2.923569  s :     2.923569
      pz      :     0.983670  p :     2.935616
      px      :     0.977864
      py      :     0.974082
      dz2     :     0.008826  d :     0.028844
      dxz     :     0.003813
      dyz     :     0.003305
      dx2y2   :     0.005247
      dxy     :     0.007651

  1 C s       :     3.199261  s :     3.199261
      pz      :     1.021313  p :     3.018226
      px      :     0.968385
      py      :     1.028528
      dz2     :     0.012128  d :     0.052254
      dxz     :     0.009424
      dyz     :     0.008991
      dx2y2   :     0.010427
      dxy     :     0.011284

  2 C s       :     2.958221  s :     2.958221
      pz      :     0.985433  p :     2.922238
      px      :     0.967897
      py      :     0.968908
      dz2     :     0.008359  d :     0.029080
      dxz     :     0.003739
      dyz     :     0.003882
      dx2y2   :     0.007450
      dxy     :     0.005649

  3 C s       :     2.958304  s :     2.958304
      pz      :     0.939360  p :     2.922455
      px      :     0.989370
      py      :     0.993726
      dz2     :     0.007120  d :     0.029063
      dxz     :     0.005572
      dyz     :     0.005746
      dx2y2   :     0.004228
      dxy     :     0.006398

  4 C s       :     3.070380  s :     3.070380
      pz      :     0.917895  p :     2.769953
      px      :     0.928802
      py      :     0.923256
      dz2     :     0.007688  d :     0.043078
      dxz     :     0.007569
      dyz     :     0.007285
      dx2y2   :     0.009993
      dxy     :     0.010543

  5 C s       :     3.256630  s :     3.256630
      pz      :     0.912895  p :     2.755518
      px      :     0.922603
      py      :     0.920021
      dz2     :     0.004359  d :     0.035054
      dxz     :     0.006281
      dyz     :     0.006439
      dx2y2   :     0.008528
      dxy     :     0.009448

  6 C s       :     3.234077  s :     3.234077
      pz      :     0.950433  p :     2.729349
      px      :     0.920670
      py      :     0.858245
      dz2     :     0.006451  d :     0.035975
      dxz     :     0.007138
      dyz     :     0.005574
      dx2y2   :     0.008027
      dxy     :     0.008785

  7 C s       :     3.087312  s :     3.087312
      pz      :     0.976204  p :     2.846026
      px      :     0.930528
      py      :     0.939294
      dz2     :     0.006507  d :     0.039566
      dxz     :     0.006884
      dyz     :     0.007341
      dx2y2   :     0.009802
      dxy     :     0.009033

  8 C s       :     3.277374  s :     3.277374
      pz      :     0.872496  p :     2.693455
      px      :     0.894777
      py      :     0.926182
      dz2     :     0.004281  d :     0.035901
      dxz     :     0.006883
      dyz     :     0.006417
      dx2y2   :     0.009011
      dxy     :     0.009310

  9 C s       :     3.258859  s :     3.258859
      pz      :     0.971754  p :     2.735031
      px      :     0.904349
      py      :     0.858929
      dz2     :     0.005781  d :     0.035220
      dxz     :     0.007073
      dyz     :     0.005592
      dx2y2   :     0.008309
      dxy     :     0.008466

 10 C s       :     3.136256  s :     3.136256
      pz      :     0.870530  p :     2.749866
      px      :     0.941602
      py      :     0.937734
      dz2     :     0.017951  d :     0.095038
      dxz     :     0.019191
      dyz     :     0.017507
      dx2y2   :     0.023640
      dxy     :     0.016749

 11 O s       :     3.727555  s :     3.727555
      pz      :     1.353773  p :     4.490687
      px      :     1.609408
      py      :     1.527506
      dz2     :     0.004458  d :     0.017108
      dxz     :     0.003322
      dyz     :     0.004260
      dx2y2   :     0.002032
      dxy     :     0.003037

 12 C s       :     2.881999  s :     2.881999
      pz      :     0.966819  p :     2.902538
      px      :     0.938612
      py      :     0.997107
      dz2     :     0.007078  d :     0.029040
      dxz     :     0.006541
      dyz     :     0.003715
      dx2y2   :     0.004109
      dxy     :     0.007597

 13 C s       :     3.134092  s :     3.134092
      pz      :     0.984244  p :     2.756624
      px      :     0.899841
      py      :     0.872539
      dz2     :     0.032124  d :     0.095241
      dxz     :     0.019236
      dyz     :     0.016940
      dx2y2   :     0.013224
      dxy     :     0.013717

 14 O s       :     3.726835  s :     3.726835
      pz      :     1.536325  p :     4.497632
      px      :     1.529672
      py      :     1.431636
      dz2     :     0.003605  d :     0.017048
      dxz     :     0.004258
      dyz     :     0.004642
      dx2y2   :     0.002454
      dxy     :     0.002090

 15 C s       :     3.074744  s :     3.074744
      pz      :     0.901605  p :     2.864593
      px      :     0.965154
      py      :     0.997834
      dz2     :     0.011238  d :     0.039136
      dxz     :     0.009567
      dyz     :     0.008537
      dx2y2   :     0.003822
      dxy     :     0.005971

 16 C s       :     3.273914  s :     3.273914
      pz      :     0.919434  p :     2.695615
      px      :     0.887195
      py      :     0.888986
      dz2     :     0.008629  d :     0.036403
      dxz     :     0.009271
      dyz     :     0.008036
      dx2y2   :     0.005586
      dxy     :     0.004881

 17 C s       :     3.263821  s :     3.263821
      pz      :     0.814127  p :     2.724731
      px      :     0.937668
      py      :     0.972935
      dz2     :     0.007314  d :     0.033214
      dxz     :     0.008697
      dyz     :     0.006910
      dx2y2   :     0.005515
      dxy     :     0.004777

 18 C s       :     2.938915  s :     2.938915
      pz      :     0.985365  p :     2.732908
      px      :     0.860003
      py      :     0.887540
      dz2     :     0.015099  d :     0.076512
      dxz     :     0.016934
      dyz     :     0.014691
      dx2y2   :     0.016299
      dxy     :     0.013489

 19 O s       :     3.728108  s :     3.728108
      pz      :     1.604625  p :     4.571903
      px      :     1.450453
      py      :     1.516825
      dz2     :     0.003017  d :     0.016906
      dxz     :     0.004169
      dyz     :     0.003818
      dx2y2   :     0.002771
      dxy     :     0.003132

 20 C s       :     3.003843  s :     3.003843
      pz      :     0.883533  p :     2.763377
      px      :     0.942711
      py      :     0.937133
      dz2     :     0.005355  d :     0.052359
      dxz     :     0.014831
      dyz     :     0.015399
      dx2y2   :     0.004517
      dxy     :     0.012256

 21 C s       :     3.260438  s :     3.260438
      pz      :     0.861538  p :     2.794411
      px      :     0.957453
      py      :     0.975419
      dz2     :     0.008330  d :     0.033115
      dxz     :     0.008771
      dyz     :     0.007282
      dx2y2   :     0.004243
      dxy     :     0.004491

 22 C s       :     3.234984  s :     3.234984
      pz      :     0.861966  p :     2.724026
      px      :     0.922204
      py      :     0.939855
      dz2     :     0.009242  d :     0.036562
      dxz     :     0.008020
      dyz     :     0.006275
      dx2y2   :     0.007575
      dxy     :     0.005450

 23 H s       :     0.967449  s :     0.967449
      pz      :     0.014113  p :     0.024013
      px      :     0.005636
      py      :     0.004264

 24 H s       :     0.967879  s :     0.967879
      pz      :     0.005563  p :     0.024011
      px      :     0.008773
      py      :     0.009674

 25 H s       :     0.971532  s :     0.971532
      pz      :     0.006723  p :     0.023848
      px      :     0.012267
      py      :     0.004858

 26 H s       :     0.969076  s :     0.969076
      pz      :     0.006630  p :     0.024120
      px      :     0.005246
      py      :     0.012244

 27 H s       :     0.969733  s :     0.969733
      pz      :     0.006467  p :     0.023955
      px      :     0.012227
      py      :     0.005262

 28 H s       :     0.969884  s :     0.969884
      pz      :     0.014197  p :     0.023759
      px      :     0.004705
      py      :     0.004858

 29 H s       :     0.969759  s :     0.969759
      pz      :     0.004545  p :     0.023761
      px      :     0.009897
      py      :     0.009319

 30 H s       :     0.968841  s :     0.968841
      pz      :     0.005829  p :     0.024135
      px      :     0.006058
      py      :     0.012248

 31 H s       :     0.969879  s :     0.969879
      pz      :     0.005767  p :     0.023957
      px      :     0.011960
      py      :     0.006230

 32 H s       :     0.984062  s :     0.984062
      pz      :     0.009664  p :     0.023907
      px      :     0.006498
      py      :     0.007745

 33 H s       :     0.990732  s :     0.990732
      pz      :     0.005650  p :     0.024723
      px      :     0.006097
      py      :     0.012976

 34 H s       :     0.996756  s :     0.996756
      pz      :     0.009499  p :     0.023776
      px      :     0.006972
      py      :     0.007305

 35 H s       :     0.992278  s :     0.992278
      pz      :     0.005437  p :     0.024041
      px      :     0.005749
      py      :     0.012855

 36 H s       :     0.942138  s :     0.942138
      pz      :     0.008490  p :     0.023558
      px      :     0.010357
      py      :     0.004712

 37 H s       :     0.943635  s :     0.943635
      pz      :     0.004111  p :     0.023540
      px      :     0.008630
      py      :     0.010799

 38 H s       :     0.989797  s :     0.989797
      pz      :     0.009603  p :     0.023897
      px      :     0.007158
      py      :     0.007136

 39 H s       :     0.989510  s :     0.989510
      pz      :     0.014336  p :     0.023734
      px      :     0.004966
      py      :     0.004432

 40 H s       :     0.933896  s :     0.933896
      pz      :     0.006145  p :     0.022127
      px      :     0.008788
      py      :     0.007194

 41 H s       :     0.937597  s :     0.937597
      pz      :     0.006913  p :     0.023066
      px      :     0.007344
      py      :     0.008810

 42 H s       :     0.937543  s :     0.937543
      pz      :     0.008443  p :     0.023046
      px      :     0.007251
      py      :     0.007352

 43 H s       :     0.983191  s :     0.983191
      pz      :     0.010257  p :     0.024241
      px      :     0.006842
      py      :     0.007142

 44 H s       :     0.982833  s :     0.982833
      pz      :     0.015359  p :     0.024801
      px      :     0.005240
      py      :     0.004203



                     *******************************
                     * LOEWDIN POPULATION ANALYSIS *
                     *******************************

----------------------
LOEWDIN ATOMIC CHARGES
----------------------
   0 C :   -0.035508
   1 C :   -0.046881
   2 C :   -0.029003
   3 C :   -0.029075
   4 C :    0.018850
   5 C :   -0.022644
   6 C :    0.001025
   7 C :   -0.086828
   8 C :    0.014802
   9 C :   -0.029909
  10 C :    0.094770
  11 O :   -0.188067
  12 C :   -0.064028
  13 C :    0.090986
  14 O :   -0.195150
  15 C :   -0.102448
  16 C :    0.019322
  17 C :   -0.047391
  18 C :    0.069196
  19 O :   -0.094943
  20 C :    0.089136
  21 C :   -0.070745
  22 C :    0.014662
  23 H :    0.021519
  24 H :    0.021494
  25 H :    0.024290
  26 H :    0.020189
  27 H :    0.022657
  28 H :    0.022141
  29 H :    0.022191
  30 H :    0.020246
  31 H :    0.022636
  32 H :    0.031385
  33 H :    0.027059
  34 H :    0.028074
  35 H :    0.032214
  36 H :    0.050770
  37 H :    0.050312
  38 H :    0.030819
  39 H :    0.035403
  40 H :    0.032209
  41 H :    0.023300
  42 H :    0.023277
  43 H :    0.037916
  44 H :    0.029769

-------------------------------
LOEWDIN REDUCED ORBITAL CHARGES
-------------------------------
  0 C s       :     2.831392  s :     2.831392
      pz      :     1.053447  p :     3.130033
      px      :     1.055575
      py      :     1.021011
      dz2     :     0.022515  d :     0.074083
      dxz     :     0.009771
      dyz     :     0.008555
      dx2y2   :     0.013726
      dxy     :     0.019517

  1 C s       :     2.840787  s :     2.840787
      pz      :     1.033494  p :     3.086812
      px      :     1.018314
      py      :     1.035004
      dz2     :     0.029712  d :     0.119282
      dxz     :     0.020263
      dyz     :     0.018342
      dx2y2   :     0.023432
      dxy     :     0.027532

  2 C s       :     2.833540  s :     2.833540
      pz      :     1.058349  p :     3.121235
      px      :     1.030601
      py      :     1.032285
      dz2     :     0.021498  d :     0.074229
      dxz     :     0.009114
      dyz     :     0.009736
      dx2y2   :     0.017870
      dxy     :     0.016010

  3 C s       :     2.833530  s :     2.833530
      pz      :     1.000279  p :     3.121342
      px      :     1.060796
      py      :     1.060267
      dz2     :     0.020381  d :     0.074203
      dxz     :     0.013193
      dyz     :     0.013656
      dx2y2   :     0.010765
      dxy     :     0.016209

  4 C s       :     2.857817  s :     2.857817
      pz      :     0.973415  p :     3.013749
      px      :     1.006830
      py      :     1.033504
      dz2     :     0.016983  d :     0.109585
      dxz     :     0.019310
      dyz     :     0.019731
      dx2y2   :     0.026127
      dxy     :     0.027433

  5 C s       :     2.850162  s :     2.850162
      pz      :     1.007619  p :     3.079481
      px      :     1.037813
      py      :     1.034048
      dz2     :     0.010604  d :     0.093001
      dxz     :     0.016375
      dyz     :     0.016297
      dx2y2   :     0.022706
      dxy     :     0.027018

  6 C s       :     2.854411  s :     2.854411
      pz      :     0.988267  p :     3.050396
      px      :     1.036093
      py      :     1.026036
      dz2     :     0.015044  d :     0.094169
      dxz     :     0.019725
      dyz     :     0.014426
      dx2y2   :     0.021487
      dxy     :     0.023486

  7 C s       :     2.852534  s :     2.852534
      pz      :     1.036079  p :     3.126028
      px      :     1.029376
      py      :     1.060572
      dz2     :     0.015604  d :     0.108266
      dxz     :     0.019390
      dyz     :     0.020100
      dx2y2   :     0.027364
      dxy     :     0.025809

  8 C s       :     2.855425  s :     2.855425
      pz      :     0.980985  p :     3.036101
      px      :     1.029853
      py      :     1.025263
      dz2     :     0.010300  d :     0.093671
      dxz     :     0.017573
      dyz     :     0.016001
      dx2y2   :     0.023489
      dxy     :     0.026309

  9 C s       :     2.850690  s :     2.850690
      pz      :     1.014847  p :     3.085565
      px      :     1.040646
      py      :     1.030071
      dz2     :     0.013567  d :     0.093654
      dxz     :     0.020091
      dyz     :     0.014604
      dx2y2   :     0.022422
      dxy     :     0.022970

 10 C s       :     2.871100  s :     2.871100
      pz      :     0.885753  p :     2.816778
      px      :     0.980660
      py      :     0.950365
      dz2     :     0.034505  d :     0.217352
      dxz     :     0.046831
      dyz     :     0.042810
      dx2y2   :     0.055853
      dxy     :     0.037353

 11 O s       :     3.543550  s :     3.543550
      pz      :     1.409145  p :     4.614812
      px      :     1.632514
      py      :     1.573153
      dz2     :     0.005675  d :     0.029705
      dxz     :     0.006532
      dyz     :     0.008800
      dx2y2   :     0.003601
      dxy     :     0.005097

 12 C s       :     2.847691  s :     2.847691
      pz      :     1.040075  p :     3.137420
      px      :     1.052592
      py      :     1.044754
      dz2     :     0.020248  d :     0.078917
      dxz     :     0.017911
      dyz     :     0.009659
      dx2y2   :     0.010167
      dxy     :     0.020932

 13 C s       :     2.869750  s :     2.869750
      pz      :     1.009882  p :     2.821332
      px      :     0.930052
      py      :     0.881399
      dz2     :     0.077103  d :     0.217932
      dxz     :     0.043324
      dyz     :     0.038014
      dx2y2   :     0.025507
      dxy     :     0.033983

 14 O s       :     3.543508  s :     3.543508
      pz      :     1.609793  p :     4.622018
      px      :     1.554576
      py      :     1.457648
      dz2     :     0.006623  d :     0.029625
      dxz     :     0.007519
      dyz     :     0.008459
      dx2y2   :     0.003031
      dxy     :     0.003993

 15 C s       :     2.850408  s :     2.850408
      pz      :     1.069944  p :     3.144467
      px      :     1.036399
      py      :     1.038123
      dz2     :     0.033172  d :     0.107573
      dxz     :     0.026719
      dyz     :     0.022530
      dx2y2   :     0.008131
      dxy     :     0.017020

 16 C s       :     2.854324  s :     2.854324
      pz      :     1.053076  p :     3.031755
      px      :     1.001004
      py      :     0.977674
      dz2     :     0.023920  d :     0.094599
      dxz     :     0.025301
      dyz     :     0.020708
      dx2y2   :     0.011552
      dxy     :     0.013118

 17 C s       :     2.855588  s :     2.855588
      pz      :     1.035109  p :     3.102287
      px      :     1.038156
      py      :     1.029021
      dz2     :     0.021187  d :     0.089516
      dxz     :     0.023714
      dyz     :     0.018322
      dx2y2   :     0.011911
      dxy     :     0.014382

 18 C s       :     2.837813  s :     2.837813
      pz      :     1.095100  p :     2.915358
      px      :     0.903883
      py      :     0.916375
      dz2     :     0.037976  d :     0.177634
      dxz     :     0.042065
      dyz     :     0.035335
      dx2y2   :     0.032245
      dxy     :     0.030012

 19 O s       :     3.430716  s :     3.430716
      pz      :     1.621714  p :     4.632469
      px      :     1.477812
      py      :     1.532943
      dz2     :     0.005079  d :     0.031757
      dxz     :     0.007671
      dyz     :     0.006781
      dx2y2   :     0.005037
      dxy     :     0.007189

 20 C s       :     2.841999  s :     2.841999
      pz      :     0.959524  p :     2.948498
      px      :     0.996058
      py      :     0.992917
      dz2     :     0.010804  d :     0.120367
      dxz     :     0.035530
      dyz     :     0.037113
      dx2y2   :     0.008578
      dxy     :     0.028342

 21 C s       :     2.851610  s :     2.851610
      pz      :     1.038191  p :     3.129555
      px      :     1.047819
      py      :     1.043545
      dz2     :     0.024921  d :     0.089579
      dxz     :     0.024261
      dyz     :     0.019128
      dx2y2   :     0.008724
      dxy     :     0.012546

 22 C s       :     2.853633  s :     2.853633
      pz      :     1.053686  p :     3.036452
      px      :     1.003353
      py      :     0.979413
      dz2     :     0.025318  d :     0.095253
      dxz     :     0.021587
      dyz     :     0.016327
      dx2y2   :     0.016478
      dxy     :     0.015543

 23 H s       :     0.911204  s :     0.911204
      pz      :     0.040491  p :     0.067277
      px      :     0.013648
      py      :     0.013138

 24 H s       :     0.911242  s :     0.911242
      pz      :     0.013980  p :     0.067264
      px      :     0.024439
      py      :     0.028845

 25 H s       :     0.909039  s :     0.909039
      pz      :     0.017838  p :     0.066671
      px      :     0.034150
      py      :     0.014683

 26 H s       :     0.912258  s :     0.912258
      pz      :     0.016994  p :     0.067553
      px      :     0.014721
      py      :     0.035839

 27 H s       :     0.910550  s :     0.910550
      pz      :     0.016510  p :     0.066793
      px      :     0.035557
      py      :     0.014726

 28 H s       :     0.911224  s :     0.911224
      pz      :     0.040257  p :     0.066635
      px      :     0.013137
      py      :     0.013241

[...]
    80a ->  85a  :     0.726826 (c= -0.85254062)
    81a ->  85a  :     0.257316 (c= -0.50726349)

Storing amplitudes in GBW file ... 
... GBW file created

-----------------------------
TD-DFT/TDA-EXCITATION SPECTRA
-----------------------------

Center of mass = (  1.0707, -0.4337,  0.3041)
Generating CIS transition densities           ... done

----------------------------------------------------------------------------------------------------
                     ABSORPTION SPECTRUM VIA TRANSITION ELECTRIC DIPOLE MOMENTS    
----------------------------------------------------------------------------------------------------
     Transition      Energy     Energy  Wavelength fosc(D2)      D2        DX        DY        DZ   
                      (eV)      (cm-1)    (nm)                 (au**2)    (au)      (au)      (au)  
----------------------------------------------------------------------------------------------------
  0-1A  ->  1-1A    3.661257   29530.0   338.6   0.043160507   0.48117   0.65268  -0.00507  -0.23486
  0-1A  ->  2-1A    3.959903   31938.8   313.1   0.002229421   0.02298   0.00618   0.14645  -0.03866
  0-1A  ->  3-1A    3.989187   32175.0   310.8   0.153219490   1.56773  -1.13286  -0.49674   0.19393
  0-1A  ->  4-1A    4.464519   36008.8   277.7   0.138175523   1.26328  -1.04785   0.40398  -0.04569
  0-1A  ->  5-1A    4.552164   36715.7   272.4   0.146910873   1.31728  -1.10778  -0.08523  -0.28781
  0-1A  ->  6-1A    4.626193   37312.8   268.0   0.020110739   0.17744  -0.34297   0.00425  -0.24452
  0-1A  ->  7-1A    4.651340   37515.6   266.6   0.004830901   0.04239   0.20180  -0.00109  -0.04087
  0-1A  ->  8-1A    4.826520   38928.5   256.9   0.414527756   3.50559   1.57390   0.97260  -0.28718
  0-1A  ->  9-1A    5.108235   41200.7   242.7   0.124561428   0.99530   0.45939  -0.87809   0.11495
  0-1A  -> 10-1A    5.143483   41485.0   241.1   0.001233494   0.00979   0.07321   0.02407  -0.06204
  0-1A  -> 11-1A    5.170275   41701.1   239.8   0.006777126   0.05350   0.11318   0.20014   0.02525
  0-1A  -> 12-1A    5.320713   42914.4   233.0   0.249546301   1.91436  -1.20370   0.09959  -0.67495
  0-1A  -> 13-1A    5.669070   45724.1   218.7   0.002177955   0.01568   0.11807  -0.00712  -0.04111
  0-1A  -> 14-1A    5.736015   46264.1   216.2   0.001129798   0.00804   0.03642   0.02034   0.07937
  0-1A  -> 15-1A    5.835861   47069.4   212.5   0.000419804   0.00294   0.03164  -0.02419  -0.03674
  0-1A  -> 16-1A    5.851589   47196.2   211.9   0.000790426   0.00551  -0.06209  -0.03700   0.01701
  0-1A  -> 17-1A    5.893384   47533.3   210.4   0.186928655   1.29465   0.04792  -0.06480  -1.13497
  0-1A  -> 18-1A    6.061149   48886.5   204.6   0.003825452   0.02576   0.15431   0.03036   0.03207

----------------------------------------------------------------------------------------------------
                     ABSORPTION SPECTRUM VIA TRANSITION VELOCITY DIPOLE MOMENTS    
----------------------------------------------------------------------------------------------------
     Transition      Energy     Energy  Wavelength fosc(P2)      P2        PX        PY        PZ   
                      (eV)      (cm-1)    (nm)                 (au**2)    (au)      (au)      (au)  
----------------------------------------------------------------------------------------------------
  0-1A  ->  1-1A    3.661257   29530.0   338.6   0.036481604   0.00736  -0.08531  -0.00702   0.00597
  0-1A  ->  2-1A    3.959903   31938.8   313.1   0.001969710   0.00043   0.00594  -0.01618   0.01153
  0-1A  ->  3-1A    3.989187   32175.0   310.8   0.048339480   0.01063   0.10049   0.01383  -0.01845
  0-1A  ->  4-1A    4.464519   36008.8   277.7   0.059361604   0.01461   0.11956  -0.01597   0.00766
  0-1A  ->  5-1A    4.552164   36715.7   272.4   0.065809504   0.01651   0.12408  -0.03325  -0.00336
  0-1A  ->  6-1A    4.626193   37312.8   268.0   0.005051880   0.00129   0.03444  -0.00863  -0.00529
  0-1A  ->  7-1A    4.651340   37515.6   266.6   0.002733516   0.00070  -0.02513  -0.00745   0.00374
  0-1A  ->  8-1A    4.826520   38928.5   256.9   0.126437400   0.03364  -0.17281  -0.05196   0.03279
  0-1A  ->  9-1A    5.108235   41200.7   242.7   0.040813200   0.01149  -0.08788   0.05545  -0.02636
  0-1A  -> 10-1A    5.143483   41485.0   241.1   0.000129731   0.00004  -0.00371   0.00469  -0.00098
  0-1A  -> 11-1A    5.170275   41701.1   239.8   0.000702599   0.00020   0.00034  -0.01259   0.00645
  0-1A  -> 12-1A    5.320713   42914.4   233.0   0.072606612   0.02130   0.13687  -0.04886   0.01316
  0-1A  -> 13-1A    5.669070   45724.1   218.7   0.001330966   0.00042  -0.02038   0.00071  -0.00035
  0-1A  -> 14-1A    5.736015   46264.1   216.2   0.000032431   0.00001  -0.00174   0.00220  -0.00155
  0-1A  -> 15-1A    5.835861   47069.4   212.5   0.000086130   0.00003  -0.00516   0.00001  -0.00104
  0-1A  -> 16-1A    5.851589   47196.2   211.9   0.000428121   0.00014   0.00949   0.00324  -0.00612
  0-1A  -> 17-1A    5.893384   47533.3   210.4   0.005945302   0.00193  -0.03141  -0.00670   0.03000
  0-1A  -> 18-1A    6.061149   48886.5   204.6   0.001805647   0.00060  -0.02435  -0.00313   0.00083

------------------------------------------------------------------------------------------
                     CD SPECTRUM VIA TRANSITION ELECTRIC DIPOLE MOMENTS    
------------------------------------------------------------------------------------------
     Transition      Energy     Energy  Wavelength    R        MX        MY        MZ   
                      (eV)      (cm-1)    (nm)   (1e40*cgs)   (au)      (au)      (au)  
------------------------------------------------------------------------------------------
  0-1A  ->  1-1A    3.661257   29530.0   338.6   42.08201  -0.31119  -0.33210  -0.47759
  0-1A  ->  2-1A    3.959903   31938.8   313.1   -0.35866   0.03215   0.01832   0.05488
  0-1A  ->  3-1A    3.989187   32175.0   310.8   10.44090   0.08104  -0.07163   0.17574
  0-1A  ->  4-1A    4.464519   36008.8   277.7  -30.11766  -0.00822   0.15514   0.16217
  0-1A  ->  5-1A    4.552164   36715.7   272.4   73.54757   0.11558   0.27194   0.01665
  0-1A  ->  6-1A    4.626193   37312.8   268.0   33.33743   0.17508  -0.10509   0.04179
  0-1A  ->  7-1A    4.651340   37515.6   266.6    0.76580  -0.01452   0.04603  -0.03319
  0-1A  ->  8-1A    4.826520   38928.5   256.9   63.41407  -0.23062   0.11308  -0.41259
  0-1A  ->  9-1A    5.108235   41200.7   242.7  -115.42240  -0.01290  -0.27228   0.10147
  0-1A  -> 10-1A    5.143483   41485.0   241.1    1.14478  -0.09160   0.08022  -0.03783
  0-1A  -> 11-1A    5.170275   41701.1   239.8   -6.85465   0.03359   0.07192  -0.14478
  0-1A  -> 12-1A    5.320713   42914.4   233.0   82.14880   0.09350   0.34306   0.14203
  0-1A  -> 13-1A    5.669070   45724.1   218.7   -0.76432  -0.00868   0.00706  -0.06559
  0-1A  -> 14-1A    5.736015   46264.1   216.2   -0.18580  -0.02803  -0.01808   0.02246
  0-1A  -> 15-1A    5.835861   47069.4   212.5    0.10033   0.03760   0.00697   0.03358
  0-1A  -> 16-1A    5.851589   47196.2   211.9    1.05882   0.05434  -0.03931  -0.01919
  0-1A  -> 17-1A    5.893384   47533.3   210.4  -19.63523  -0.00356  -0.17415  -0.02690
  0-1A  -> 18-1A    6.061149   48886.5   204.6    1.08557   0.00393  -0.06723  -0.02705

------------------------------------------------------------------------------------------
                     CD SPECTRUM VIA TRANSITION VELOCITY DIPOLE MOMENTS    
------------------------------------------------------------------------------------------
     Transition      Energy     Energy  Wavelength    R        MX        MY        MZ   
                      (eV)      (cm-1)    (nm)   (1e40*cgs)   (au)      (au)      (au)  
------------------------------------------------------------------------------------------
  0-1A  ->  1-1A    3.661257   29530.0   338.6   91.19381  -0.31119  -0.33210  -0.47759
  0-1A  ->  2-1A    3.959903   31938.8   313.1    1.70894   0.03215   0.01832   0.05488
  0-1A  ->  3-1A    3.989187   32175.0   310.8   12.57594   0.08104  -0.07163   0.17574
  0-1A  ->  4-1A    4.464519   36008.8   277.7   -6.37377  -0.00822   0.15514   0.16217
  0-1A  ->  5-1A    4.552164   36715.7   272.4   14.77532   0.11558   0.27194   0.01665
  0-1A  ->  6-1A    4.626193   37312.8   268.0   18.62172   0.17508  -0.10509   0.04179
  0-1A  ->  7-1A    4.651340   37515.6   266.6   -0.28104  -0.01452   0.04603  -0.03319
  0-1A  ->  8-1A    4.826520   38928.5   256.9   54.35668  -0.23062   0.11308  -0.41259
  0-1A  ->  9-1A    5.108235   41200.7   242.7  -41.78859  -0.01290  -0.27228   0.10147
  0-1A  -> 10-1A    5.143483   41485.0   241.1    1.88006  -0.09160   0.08022  -0.03783
  0-1A  -> 11-1A    5.170275   41701.1   239.8   -4.53572   0.03359   0.07192  -0.14478
  0-1A  -> 12-1A    5.320713   42914.4   233.0   -5.05210   0.09350   0.34306   0.14203
  0-1A  -> 13-1A    5.669070   45724.1   218.7    0.46283  -0.00868   0.00706  -0.06559
  0-1A  -> 14-1A    5.736015   46264.1   216.2   -0.05810  -0.02803  -0.01808   0.02246
  0-1A  -> 15-1A    5.835861   47069.4   212.5   -0.50292   0.03760   0.00697   0.03358
  0-1A  -> 16-1A    5.851589   47196.2   211.9    1.10919   0.05434  -0.03931  -0.01919
  0-1A  -> 17-1A    5.893384   47533.3   210.4    1.02652  -0.00356  -0.17415  -0.02690
  0-1A  -> 18-1A    6.061149   48886.5   204.6    0.19602   0.00393  -0.06723  -0.02705

Total run time:      198.383 sec

           *** ORCA-CIS/TD-DFT FINISHED WITHOUT ERROR ***
-----------------------
CIS/TD-DFT TOTAL ENERGY
-----------------------

    E(SCF)  =   -999.728466241 Eh
    DE(CIS) =      0.134548734 Eh (Root  1)
    ----------------------------- ---------
    E(tot)  =   -999.593917507 Eh


Maximum memory used throughout the entire CIS-calculation: 714.1 MB
=> NOW LEAVING ORCA_CIS

-------------------------   --------------------
FINAL SINGLE POINT ENERGY      -999.593917506666
-------------------------   --------------------



           ************************************************************
           *        Program running with 4 parallel MPI-processes     *
           *              working on a common directory               *
           ************************************************************

------------------------------------------------------------------------------
                              ORCA PROPERTY CALCULATIONS
------------------------------------------------------------------------------

GBWName                                 ... td.gbw
Number of atoms                         ...     45
Number of basis functions               ...    432
Max core memory                         ...   2500 MB

Electric properties:
Dipole moment                           ... YES
Quadrupole moment                       ...  NO
Static polarizability (Dipole/Dipole)   ...  NO
Static polarizability (Dipole/Quad.)    ...  NO
Static polarizability (Quad./Quad.)     ...  NO
Static polarizability (Velocity)        ...  NO
Static hyperpolarizability              ...  NO

Atomic electric properties:
Dipole moment                           ...  NO
Quadrupole moment                       ...  NO
Static polarizability                   ...  NO

Choice of electric origin               ... Center of mass
Position of electric origin             ...     1.070667    -0.433682     0.304119

General magnetic properties:
Magnetizability                         ...  NO

EPR properties:
g-Tensor (aka g-matrix)                 ...  NO
Zero-Field splitting spin-orbit         ...  NO
Zero-field splitting spin-spin          ...  NO
Hyperfine couplings                     ...  NO (   0 nuclei)
Quadrupole couplings                    ...  NO (   0 nuclei)
Contact density                         ...  NO (   0 nuclei)

NMR properties:
Chemical shifts                         ...  NO (   0 nuclei)
Spin-rotation constants                 ...  NO (   0 nuclei)
Spin-spin couplings                     ...  NO (   0 nuclei,    0 pairs)

Choice of magnetic origin               ... GIAO
Position of magnetic origin             ...     0.000000     0.000000     0.000000

Properties with geometric perturbations:
SCF Hessian                             ...  NO
IR spectrum                             ...  NO
VCD spectrum                            ...  NO
X-ray spectroscopy properties:
SCF XES/XAS/RIXS spectra                ...  NO

SCF SOC stabilization energy            ...  NO
Diagonal Born-Oppenheimer correction    ...  NO

-------------
DIPOLE MOMENT
-------------

Method             : SCF
Type of density    : Electron Density
Multiplicity       :   1
Irrep              :   0
Energy             :  -999.7284662411394720 Eh
Basis              : AO
                                X                 Y                 Z
Electronic contribution:     23.829529146      -9.183752442       3.726318552
Nuclear contribution   :    -23.675690452      10.199349291      -3.605696265
                        -----------------------------------------
Total Dipole Moment    :      0.153838694       1.015596849       0.120622287
                        -----------------------------------------
Magnitude (a.u.)       :      1.034240320
Magnitude (Debye)      :      2.628829977



--------------------
Rotational spectrum 
--------------------
 
Rotational constants in cm-1:             0.016528             0.003561             0.003471 
Rotational constants in MHz :           495.502938           106.742598           104.056133 

Dipole components along the rotational axes: 
x,y,z [a.u.] :    -0.138689    -0.824478    -0.608815 
x,y,z [Debye]:    -0.352519    -2.095655    -1.547484 

 

Dipole moment calculation done in   0.0 sec 

Maximum memory used throughout the entire PROP-calculation: 24.0 MB

--------------------------------
SUGGESTED CITATIONS FOR THIS RUN
--------------------------------

Below you find a list of papers that are relevant to this ORCA run
We neither can nor want to force you to cite these papers, but we appreciate if you do
You receive ORCA, which is the product of decades of hard work by many enthusiastic individuals, for free
The only thing we kindly ask in return is that you cite our papers,
We deeply appreciate it, if you show your appreciation for ORCA by not just citing the generic ORCA reference.

Please note that relegating all ORCA citations to the supporting information does *not* help us.
SI sections are not indexed - citations you put there will not count into any citation statistics
But we need these citations in order to attract the funding resources that allow us to do what we are doing

Therefore, if you are a happy ORCA user, please consider citing a few of the papers listed below in the main body of your paper

In addition to the list printed below, the program has created the file td.bibtex that contains the list in bibtex format
You can import this file easily into all common literature databanks and citation aid programs

It goes without saying that in many instances, there are alternative algorithms to achieve similar
results as the ones you have gotten from ORCA. It is, of course, also the case that in some instances
ORCA just re-implements algorithms worked out by others. We are fully aware of that and we are also
fully appreciative of our colleagues work. Hence this citation list should not be read as indicating
that the listed papers, which are focused on our own work, are the only ones worth citing. It simply
meant to make it easier for users to cite ORCA specific papers. It is not a substitute for doing your
own literature research and citing the relevant literature in a scientifically appropriate manner.

List of essential papers. We consider these as the minimum necessary citations

  1. Neese, F.
     Software update: the ORCA program system, version 6.0
     WIRES Comput. Molec. Sci. 2025 15(1), e70019
     doi.org/10.1002/wcms.70019

List of papers to cite with high priority. The work reported in these papers was absolutely
necessary for this run to complete.
Our perspective: the developers of density functionals and basis sets usually get cited in chemistry papers
Good! But without the algorithms to do something with them, the functionals or basis sets would not do anything.
Hence, in our opinion, the algorithm design and method developments papers are equally worthy of getting cited

  1. Neese, F.; Olbrich, G.
     Efficient use of the resolution of the identity approximation in time-dependent density functional calculations with hybrid density functionals
     Chem. Phys. Lett. 2002 362 , 170-178
     doi.org/10.1016/s0009-2614(02)01053-9
  2. Neese, F.
     An improvement of the resolution of the identity approximation for the formation of the Coulomb matrix
     J. Comp. Chem. 2003 24(14), 1740-1747
     doi.org/10.1002/jcc.10318
  3. Neese, F.; Wennmohs, F.; Hansen, A.; Becker, U.
     Efficient, approximate and parallel Hartree-Fock and hybrid DFT calculations. A 'chain-of-spheres' algorithm for the Hartree-Fock exchange
     Chem. Phys. 2009 356(1-3), 98-109
     doi.org/10.1016/j.chemphys.2008.10.036
  4. Garcia-Rates, M.; Neese, F.
     Effect of the Solute Cavity on the Solvation Energy and its Derivatives within the Framework of the Gaussian Charge Scheme
     J. Comput. Chem. 2020 41 , 922-939
     doi.org/10.1002/jcc.26139
  5. Helmich-Paris, B.; de Souza, B.; Neese, F.; Izsák, R.
     An improved chain of spheres for exchange algorithm
     J. Chem. Phys. 2021 155(10), 104109
     doi.org/10.1063/5.0058766
  6. Neese, F.
     The SHARK Integral Generation and Digestion System
     J. Comp. Chem. 2022 44(3), 381
     doi.org/10.1002/jcc.26942

List of suggested additional citations. These are papers that are important in the 'surrounding' of 
of this run, or papers that preceded the highly important papers. If you like your results we are grateful for a citation.

  1. Izsak, R.; Neese, F.
     An overlap fitted chain of spheres exchange method
     J. Chem. Phys. 2011 135 , 144105
     doi.org/10.1063/1.3646921
  2. Izsak, R.; Hansen, A.; Neese, F.
     The resolution of identity and chain of spheres approximations for the LPNO-CCSD singles Fock term
     Molec. Phys. 2012 110 , 2413-2417
     doi.org/10.1080/00268976.2012.687466
  3. Neese, F.
     The ORCA program system
     WIRES Comput. Molec. Sci. 2012 2(1), 73-78
     doi.org/10.1002/wcms.81
  4. Izsak, R.; Neese, F.; Klopper, W.
     Robust fitting techniques in the chain of spheres approximation to the Fock exchange: The role of the complementary space
     J. Chem. Phys. 2013 139 , 
     doi.org/10.1063/1.4819264
  5. Neese, F.
     Software update: the ORCA program system, version 4.0
     WIRES Comput. Molec. Sci. 2018 8(1), 1-6
     doi.org/10.1002/wcms.1327
  6. Neese, F.; Wennmohs, F.; Becker, U.; Riplinger, C.
     The ORCA quantum chemistry program package
     J. Chem. Phys. 2020 152(22), 224108
     doi.org/10.1063/5.0004608
  7. Neese, F.
     Software update: The ORCA program system—Version 5.0
     WIRES Comput. Molec. Sci. 2022 12(1), e1606
     doi.org/10.1002/wcms.1606

List of optional additional citations

  1. Neese, F.
     Approximate second-order SCF convergence for spin unrestricted wavefunctions
     Chem. Phys. Lett. 2000 325(1-3), 93-98
     doi.org/10.1016/s0009-2614(00)00662-x

Timings for individual modules:

Sum of individual times          ...      338.572 sec (=   5.643 min)
Startup calculation              ...        4.921 sec (=   0.082 min)   1.5 %
SCF iterations                   ...      134.242 sec (=   2.237 min)  39.6 %
Property integrals               ...        0.457 sec (=   0.008 min)   0.1 %
Property calculations            ...        0.317 sec (=   0.005 min)   0.1 %
CIS module                       ...      198.635 sec (=   3.311 min)  58.7 %
                             ****ORCA TERMINATED NORMALLY****
TOTAL RUN TIME: 0 days 0 hours 5 minutes 39 seconds 276 msec
